# vtk DataFile Version 2.0
Sample triangulation
ASCII
DATASET UNSTRUCTURED_GRID

POINTS 29 float
0.620406882416 0.30742530663 0.0
0.876069008143 0.939164408806 0.0
0.212385171919 0.220762906346 0.0
0.474930057491 0.352302603495 0.0
0.635060248285 0.100280110884 0.0
0.931592560065 0.752480736676 0.0
0.0390200027031 0.856169409716 0.0
0.33164969694 0.475782851496 0.0
0.256343415617 0.807294766181 0.0
0.638621129075 0.775555987983 0.0
0.574423743526 0.806049728709 0.0
0.571394247437 0.87790699137 0.0
0.443809239845 0.496656229877 0.0
0.199386300416 0.68734161247 0.0
0.037865258118 0.491827449164 0.0
0.857071651915 0.960345659011 0.0
0.249821708332 0.714065796848 0.0
0.0831143745637 0.87168752872 0.0
0.510068647225 0.974354389063 0.0
0.802574771235 0.0771024311629 0.0
0.171195776122 0.277231674267 0.0
0.120808248942 0.981794848248 0.0
0.448004794584 0.0698092133738 0.0
0.391486750507 0.692041666972 0.0
0.379264674316 0.0661907360459 0.0
0.0 0.0 0.0
0.999999880791 0.0 0.0
0.0 0.999999880791 0.0
0.999999880791 0.999999880791 0.0

CELLS 52 208
3 14 27 25
3 18 28 27
3 26 24 25
3 22 24 26
3 19 22 26
3 0 9 12
3 0 3 22
3 3 24 22
3 3 0 12
3 7 3 12
3 20 7 14
3 20 14 25
3 4 0 22
3 19 4 22
3 4 19 0
3 5 9 0
3 28 5 26
3 5 19 26
3 19 5 0
3 14 6 27
3 6 17 27
3 8 23 18
3 16 23 8
3 9 23 12
3 23 7 12
3 23 16 7
3 17 21 27
3 8 21 17
3 21 18 27
3 21 8 18
3 2 3 7
3 20 2 7
3 3 2 24
3 24 2 25
3 2 20 25
3 18 15 28
3 7 13 14
3 16 13 7
3 13 6 14
3 6 13 17
3 13 8 17
3 13 16 8
3 10 23 9
3 5 1 9
3 1 15 9
3 1 5 28
3 15 1 28
3 11 10 9
3 11 15 18
3 15 11 9
3 23 11 18
3 10 11 23

CELL_TYPES 52
5
5
5
5
5
5
5
5
5
5
5
5
5
5
5
5
5
5
5
5
5
5
5
5
5
5
5
5
5
5
5
5
5
5
5
5
5
5
5
5
5
5
5
5
5
5
5
5
5
5
5
5

POINT_DATA 29
SCALARS value float 1
LOOKUP_TABLE default
1.0
1.0
1.0
1.0
1.0
1.0
1.0
1.0
1.0
1.0
1.0
1.0
1.0
1.0
1.0
1.0
1.0
1.0
1.0
1.0
1.0
1.0
1.0
1.0
1.0
1.0
1.0
1.0
1.0
