# vtk DataFile Version 2.0
Sample triangulation
ASCII
DATASET UNSTRUCTURED_GRID

POINTS 25 float
0.0620621318998 0.566129385814 0.0
0.834165885325 0.444962009275 0.0
0.763279198473 0.93117201984 0.0
0.380918303522 0.678336570247 0.0
0.648147005779 0.720228696572 0.0
0.00363408206125 0.204687049513 0.0
0.605047714107 0.431338827082 0.0
0.528054669566 0.873674328653 0.0
0.218697211388 0.727605879426 0.0
0.755266395827 0.892116244896 0.0
0.432990750127 0.0968794165602 0.0
0.769549262622 0.429947911701 0.0
0.690751795738 0.17602197701 0.0
0.501726604092 0.886506333201 0.0
0.752395657857 0.29489978486 0.0
0.235798602407 0.491403645451 0.0
0.318380673294 0.54633513594 0.0
0.292191476114 0.283272984053 0.0
0.153795596671 0.161030097314 0.0
0.191069483665 0.218924414084 0.0
0.932530298873 0.147064653796 0.0
0.102303444535 0.10880968112 0.0
0.108095579301 0.60738121919 0.0
0.550239313372 0.344746522694 0.0
0.17861796043 0.230196209524 0.0

CELLS 40 160
3 2 1 20
3 12 10 20
3 12 23 10
3 23 17 10
3 23 14 6
3 14 23 12
3 1 14 20
3 14 12 20
3 18 21 10
3 21 18 5
3 13 7 2
3 9 1 2
3 9 4 1
3 7 9 2
3 4 9 7
3 11 4 6
3 4 11 1
3 14 11 6
3 11 14 1
3 3 4 7
3 3 13 8
3 13 3 7
3 4 3 6
3 0 22 8
3 15 22 0
3 24 0 5
3 24 15 0
3 15 24 17
3 18 24 5
3 17 19 10
3 19 18 10
3 24 19 17
3 19 24 18
3 3 16 6
3 16 23 6
3 16 3 8
3 16 15 17
3 23 16 17
3 22 16 8
3 16 22 15

CELL_TYPES 40
5
5
5
5
5
5
5
5
5
5
5
5
5
5
5
5
5
5
5
5
5
5
5
5
5
5
5
5
5
5
5
5
5
5
5
5
5
5
5
5

POINT_DATA 25
SCALARS value float 1
LOOKUP_TABLE default
0.0
0.0
0.0
0.0
0.0
0.0
0.0
0.0
0.0
0.0
0.0
0.0
0.0
0.0
0.0
0.0
0.0
0.0
0.0
0.0
0.0
0.0
0.0
0.0
0.0
