# vtk DataFile Version 2.0
Sample triangulation
ASCII
DATASET UNSTRUCTURED_GRID

POINTS 54 float
0.98588680901 0.852191514558 0.0
-0.146492834791 0.691478717067 0.0
-0.432104217275 -0.623817356088 0.0
0.935601240569 -0.545083455611 0.0
-0.328801038886 -0.124361696356 0.0
-0.16210573019 0.878871379678 0.0
-0.233262930281 0.201693821382 0.0
0.0991187479057 0.48817778524 0.0
0.150612412557 0.494843948481 0.0
0.571074703806 0.632718004667 0.0
0.684980828557 0.115541634007 0.0
0.132498387697 -0.887528746692 0.0
0.611848960341 0.40731405427 0.0
0.0312625427628 0.333173818742 0.0
-0.295859903348 -0.118085693877 0.0
-0.54261622508 0.388583685509 0.0
-0.730394843784 0.0954952465877 0.0
0.93421664931 0.985910686658 0.0
-0.844207768191 0.393224176317 0.0
0.305588579851 0.624613138504 0.0
-0.994075603852 -0.334784946026 0.0
0.0506502364948 -0.703636774731 0.0
0.823629093833 -0.389226682966 0.0
0.30046161342 0.0808395809644 0.0
0.374499100711 -0.686604618513 0.0
-0.750009690232 -0.936890363945 0.0
0.26523961309 -0.718060203822 0.0
0.485459679613 0.147592159629 0.0
-0.897835111918 -0.676459301609 0.0
0.108794788089 0.218954625217 0.0
0.139128564699 0.517197748714 0.0
0.880817240904 -0.331114012828 0.0
0.781649885772 0.769995803741 0.0
0.0260243396799 0.513627029532 0.0
-0.0734824802696 -0.523789823618 0.0
0.652217270692 -0.919532803606 0.0
-0.87627377122 -0.0408421579325 0.0
-0.698306595069 -0.197976091633 0.0
0.115595232034 -0.559023237574 0.0
-0.344167578027 -0.344869557407 0.0
0.303841469634 0.0567906508142 0.0
-0.664602711844 -0.709630476793 0.0
-0.482908931764 -0.404773329505 0.0
0.708033937008 0.983883989486 0.0
-0.0998938158253 -0.665704144662 0.0
-0.288563933727 0.281161946489 0.0
-0.525355505847 -0.750269158551 0.0
-0.903956896383 -0.785341442539 0.0
-0.354011959349 0.809396018447 0.0
0.522134076514 -0.44498691322 0.0
-1 -1 0.0
0.999999880791 -1 0.0
-1 0.999999880791 0.0
0.999999880791 0.999999880791 0.0

CELLS 102 408
3 51 11 50
3 20 52 50
3 43 53 52
3 5 43 52
3 11 25 50
3 31 0 10
3 0 12 10
3 3 0 31
3 53 0 51
3 0 3 51
3 12 27 10
3 27 49 10
3 49 27 40
3 20 37 36
3 44 11 21
3 28 20 50
3 28 37 20
3 13 6 29
3 13 45 6
3 45 13 33
3 13 7 33
3 43 17 53
3 17 0 53
3 0 32 12
3 32 17 43
3 17 32 0
3 40 23 29
3 23 27 29
3 27 23 40
3 3 35 51
3 35 11 51
3 49 35 3
3 35 49 24
3 22 31 10
3 49 22 10
3 22 3 31
3 22 49 3
3 11 26 21
3 35 26 11
3 26 35 24
3 4 37 42
3 37 41 42
3 28 41 37
3 25 47 50
3 47 28 50
3 41 47 25
3 47 41 28
3 1 15 45
3 1 45 33
3 20 18 52
3 18 20 36
3 19 43 5
3 1 19 5
3 39 4 42
3 45 16 6
3 16 4 6
3 15 16 45
3 4 16 37
3 37 16 36
3 16 18 36
3 18 16 15
3 46 41 25
3 46 25 11
3 44 46 11
3 48 1 5
3 1 48 15
3 48 5 52
3 18 48 52
3 48 18 15
3 9 32 43
3 19 9 43
3 32 9 12
3 9 19 12
3 27 8 29
3 8 27 12
3 19 8 12
3 8 13 29
3 8 7 13
3 30 1 33
3 30 19 1
3 30 8 19
3 7 30 33
3 8 30 7
3 34 44 21
3 41 2 42
3 46 2 41
3 2 46 44
3 2 39 42
3 34 2 44
3 2 34 39
3 39 14 4
3 34 14 39
3 14 34 40
3 14 40 29
3 6 14 29
3 4 14 6
3 38 49 40
3 34 38 40
3 49 38 24
3 38 26 24
3 26 38 21
3 38 34 21

CELL_TYPES 102
5
5
5
5
5
5
5
5
5
5
5
5
5
5
5
5
5
5
5
5
5
5
5
5
5
5
5
5
5
5
5
5
5
5
5
5
5
5
5
5
5
5
5
5
5
5
5
5
5
5
5
5
5
5
5
5
5
5
5
5
5
5
5
5
5
5
5
5
5
5
5
5
5
5
5
5
5
5
5
5
5
5
5
5
5
5
5
5
5
5
5
5
5
5
5
5
5
5
5
5
5
5

POINT_DATA 54
SCALARS value float 1
LOOKUP_TABLE default
0.0198500156866
-0.366180791221
0.904325457051
-0.198925277398
0.327063882151
-0.181081634864
-0.39608281212
0.306171488689
0.455644128174
0.891631489727
0.296778581106
-0.139914352308
0.899374741787
0.084894714081
0.290493669922
-0.930957950781
-0.221435516678
0.0090796239398
-0.443924671832
0.757233236888
0.0161598371215
-0.127117728502
-0.494624893716
0.203474431668
-0.769115931293
0.139273444641
-0.573150202408
0.446771066686
0.268230792011
0.212798050351
0.422682889318
-0.315454157677
0.418895528213
0.081591995931
0.228168291065
-0.222054404214
0.0484938133907
0.473172325084
-0.349134107766
0.779788259474
0.144823091135
0.687459658764
0.954206262493
0.0401792336295
0.267807304981
-0.608516182498
0.704268329463
0.185555028418
-0.505402639233
-0.982721588519
1.49975978266e-32
-4.58638833861e-23
-4.58638833861e-23
1.40255514488e-13
