# vtk DataFile Version 2.0
Sample triangulation
ASCII
DATASET UNSTRUCTURED_GRID

POINTS 50 float
0.603544783061 0.363568162386 0.0
0.0106451808188 -0.748456860066 0.0
-0.338218609 0.407663556446 0.0
0.847553226174 -0.825035720972 0.0
0.402768537423 0.425382139517 0.0
0.939807726704 -0.714496021831 0.0
0.598026265657 0.132252099626 0.0
-0.169650835247 -0.887934981863 0.0
0.102739245558 -0.963574839301 0.0
0.21797526204 -0.496418771319 0.0
0.736463202186 0.665133218805 0.0
0.954809327269 -0.773755146355 0.0
-0.349409370715 -0.5205892791 0.0
-0.711434395217 -0.458761569595 0.0
-0.896571149995 0.773060210625 0.0
-0.221287243743 0.509879649093 0.0
-0.7937879967 -0.748962964239 0.0
0.962850801409 -0.0577727806897 0.0
-0.107626965767 0.834790654475 0.0
-0.324082091417 0.282383536072 0.0
0.682215479484 -0.461355406202 0.0
-0.563657283523 0.687878497211 0.0
-0.0263051659964 -0.930045942847 0.0
0.500039023246 -0.303423979195 0.0
0.978849510984 0.641376644806 0.0
0.0929551137472 0.820952754793 0.0
0.619695574421 -0.806505496942 0.0
0.0842149931059 0.585958610963 0.0
-0.102644038385 -0.444399652459 0.0
0.970049076552 -0.53124540285 0.0
-0.661083919873 0.248826287325 0.0
-0.772989625171 -0.100952715793 0.0
0.655783280755 0.273358350847 0.0
0.973929131801 -0.15594922753 0.0
0.0756610237554 -0.151364687042 0.0
0.941032266491 0.932088630885 0.0
0.603381267169 -0.998181638015 0.0
-0.679433914748 -0.94288299124 0.0
-0.691898901868 0.689698465953 0.0
0.103579842171 -0.970780197398 0.0
-0.867786537758 0.736569707403 0.0
-0.394508677926 -0.0789167387845 0.0
0.345303973492 -0.366827250189 0.0
0.818032427118 -0.727251707017 0.0
0.656512216224 -0.489595743056 0.0
-0.608746164779 -0.178076986425 0.0
-0.503842727348 -0.50696288613 0.0
-0.889911391364 0.312009216819 0.0
-0.0759096854429 -0.87318757308 0.0
-0.899301736214 0.388976085601 0.0

CELLS 88 352
3 18 35 14
3 35 18 25
3 19 41 34
3 30 41 19
3 27 4 25
3 18 27 25
3 27 19 34
3 4 27 34
3 21 18 14
3 4 10 25
3 10 35 25
3 35 10 24
3 9 26 44
3 47 30 49
3 16 47 49
3 47 31 30
3 31 16 13
3 31 47 16
3 27 15 19
3 15 27 18
3 21 15 18
3 40 14 49
3 30 38 49
3 21 38 30
3 38 40 49
3 38 21 14
3 40 38 14
3 0 10 4
3 0 32 24
3 10 0 24
3 20 29 33
3 23 20 33
3 20 23 44
3 26 43 44
3 43 20 44
3 20 43 29
3 46 12 41
3 16 46 13
3 46 16 37
3 12 46 37
3 7 12 37
3 7 22 48
3 22 7 37
3 41 28 34
3 12 28 41
3 28 9 34
3 45 41 30
3 31 45 30
3 45 31 13
3 46 45 13
3 45 46 41
3 23 6 34
3 6 4 34
3 6 0 4
3 0 6 32
3 42 9 44
3 23 42 44
3 9 42 34
3 42 23 34
3 15 2 19
3 2 15 21
3 2 30 19
3 2 21 30
3 29 5 11
3 5 43 11
3 43 5 29
3 3 26 36
3 3 43 26
3 11 3 36
3 43 3 11
3 9 8 26
3 26 8 36
3 28 1 9
3 1 8 9
3 1 7 48
3 22 1 48
3 8 1 22
3 7 1 12
3 1 28 12
3 17 23 33
3 17 6 23
3 6 17 32
3 17 33 24
3 32 17 24
3 39 37 36
3 8 39 36
3 39 22 37
3 39 8 22

CELL_TYPES 88
5
5
5
5
5
5
5
5
5
5
5
5
5
5
5
5
5
5
5
5
5
5
5
5
5
5
5
5
5
5
5
5
5
5
5
5
5
5
5
5
5
5
5
5
5
5
5
5
5
5
5
5
5
5
5
5
5
5
5
5
5
5
5
5
5
5
5
5
5
5
5
5
5
5
5
5
5
5
5
5
5
5
5
5
5
5
5
5

POINT_DATA 50
SCALARS value float 1
LOOKUP_TABLE default
0.0
0.0
0.0
0.0
0.0
0.0
0.0
0.0
0.0
0.0
0.0
0.0
0.0
0.0
0.0
0.0
0.0
0.0
0.0
0.0
0.0
0.0
0.0
0.0
0.0
0.0
0.0
0.0
0.0
0.0
0.0
0.0
0.0
0.0
0.0
0.0
0.0
0.0
0.0
0.0
0.0
0.0
0.0
0.0
0.0
0.0
0.0
0.0
0.0
0.0
