# vtk DataFile Version 2.0
Sample triangulation
ASCII
DATASET UNSTRUCTURED_GRID

POINTS 2004 float
0.547799038322 0.160433580913 0.0
0.230374471182 0.475948014979 0.0
0.191291420437 0.671254171731 0.0
0.678530292636 0.360259647523 0.0
0.45058607474 0.720732302264 0.0
0.382811518725 0.912419540422 0.0
0.49760394982 0.399701270307 0.0
0.248916666341 0.464111671935 0.0
0.138981718028 0.818877791119 0.0
0.234783235314 0.0286188558898 0.0
0.526263407363 0.269330108844 0.0
0.432924722605 0.754617246148 0.0
0.164494490124 0.065195012221 0.0
0.950704868416 0.74958293452 0.0
0.082106046907 0.657454121713 0.0
0.0562899429525 0.15222996442 0.0
0.898116849996 0.0413458375709 0.0
0.758840899277 0.151975123059 0.0
0.475719130243 0.543644905326 0.0
0.532811344847 0.532733794755 0.0
0.196060398245 0.901128586881 0.0
0.5092620331 0.159567908837 0.0
0.504567198045 0.831953568414 0.0
0.899245696394 0.912710698494 0.0
0.11469460555 0.292753212837 0.0
0.583371460483 0.680856321705 0.0
0.752557476927 0.10334977561 0.0
0.91663803926 0.723699198566 0.0
0.588549308834 0.445904589652 0.0
0.470295777643 0.010499585023 0.0
0.899394035405 0.845084757907 0.0
0.678080433888 0.525748390614 0.0
0.840784491798 0.316614478807 0.0
0.955868299718 0.829993540301 0.0
0.288696183139 0.262269931106 0.0
0.885895879659 0.497317243915 0.0
0.996347704925 0.394658574087 0.0
0.943157079895 0.755895385919 0.0
0.567131293758 0.0839806173204 0.0
0.34834145392 0.868399946451 0.0
0.622793784503 0.599164592831 0.0
0.717171414915 0.315208156068 0.0
0.364695112567 0.0977274963075 0.0
0.233932083424 0.92937147825 0.0
0.853291883522 0.2352856598 0.0
0.331121599412 0.270903660609 0.0
0.388676911971 0.640949639644 0.0
0.000667113225773 0.738800474158 0.0
0.832837785338 0.264124349991 0.0
0.66168195771 0.562717387719 0.0
0.53513907841 0.888229276109 0.0
0.0407981206712 0.0833078162709 0.0
0.925007759462 0.763330121338 0.0
0.867499629541 0.814754870393 0.0
0.788022280827 0.340518952816 0.0
0.60422524888 0.152368566587 0.0
0.62399694549 0.38436589557 0.0
0.845474660457 0.526059035437 0.0
0.384770878529 0.398347090468 0.0
0.85220869164 0.326514585441 0.0
0.851900586987 0.923668017281 0.0
0.243203122033 0.488700041464 0.0
0.116933444699 0.916203429636 0.0
0.470405564106 0.831402880707 0.0
0.0950727351776 0.389053226027 0.0
0.876284823439 0.492389848243 0.0
0.77718980189 0.656230491343 0.0
0.415693377915 0.790723920213 0.0
0.886197991325 0.330165312083 0.0
0.921864487614 0.305204251665 0.0
0.193117992858 0.925398744985 0.0
0.138361680714 0.966469088532 0.0
0.932509619283 0.862658558064 0.0
0.722521145291 0.742417127264 0.0
0.938053319095 0.636728938988 0.0
0.791398011953 0.463655589076 0.0
0.206803969328 0.0407715521668 0.0
0.141206223893 0.771008815425 0.0
0.362683883084 0.138446968856 0.0
0.625238447171 0.162120601187 0.0
0.818381748154 0.120624321046 0.0
0.801586331754 0.0986141741871 0.0
0.144568757832 0.289879770061 0.0
0.032570564752 0.523416739366 0.0
0.288915238601 0.565491771837 0.0
0.65624699231 0.959621308126 0.0
0.416156720604 0.597340396416 0.0
0.954934822065 0.992446532031 0.0
0.352816186797 0.395709571222 0.0
0.290760517832 0.670470018089 0.0
0.652261235468 0.781025076412 0.0
0.48712829882 0.705719739933 0.0
0.479145410722 0.153669118315 0.0
0.805434584372 0.944882928482 0.0
0.606651252357 0.803895021097 0.0
0.457705192651 0.453292776123 0.0
0.356223828241 0.528870431673 0.0
0.190544050593 0.307887700936 0.0
0.782683308972 0.688221346749 0.0
0.604152673892 0.193075234978 0.0
0.709672411671 0.631172174772 0.0
0.442881322079 0.660211953606 0.0
0.444797857663 0.848057832111 0.0
0.950584272031 0.128091015061 0.0
0.764351622734 0.830446209419 0.0
0.935169356032 0.0935724906029 0.0
0.151850106556 0.413792631053 0.0
0.952235428117 0.18366062052 0.0
0.14739952274 0.449818142807 0.0
0.739851817006 0.0567829168904 0.0
0.728811682861 0.530316701133 0.0
0.724878598593 0.921322184319 0.0
0.417765580985 0.621484618544 0.0
0.0346274778751 0.186138254313 0.0
0.00645011220638 0.76977958719 0.0
0.00391570135288 0.810209605964 0.0
0.694657906242 0.170535903103 0.0
0.234802167267 0.702883527059 0.0
0.530779092189 0.339280421242 0.0
0.11901317291 0.124613616169 0.0
0.533112076355 0.736656058106 0.0
0.892169283982 0.745564307672 0.0
0.626050797041 0.127044209062 0.0
0.2828470913 0.498833539056 0.0
0.0525069418729 0.581505934727 0.0
0.805638855675 0.0565102921456 0.0
0.999751518548 0.202432221103 0.0
0.204266782071 0.284310839725 0.0
0.2411986335 0.747632432249 0.0
0.21006807912 0.161878251999 0.0
0.774328485401 0.478632934018 0.0
0.832641700797 0.533418260987 0.0
0.785284638592 0.7960091637 0.0
0.754114051015 0.417016030424 0.0
0.633096188493 0.676591445454 0.0
0.682075082623 0.147119452485 0.0
0.919702425195 0.989524448044 0.0
0.168478884498 0.689334978799 0.0
0.3298756515 0.923264863494 0.0
0.973602079699 0.784120846433 0.0
0.981075123503 0.614517151888 0.0
0.850449125321 0.287754378614 0.0
0.211929678103 0.831501200604 0.0
0.803064137906 0.263572311822 0.0
0.372540826855 0.789348570635 0.0
0.7395575424 0.00595886492139 0.0
0.124794215403 0.719135779799 0.0
0.287592516816 0.628377145403 0.0
0.598945003746 0.467642565084 0.0
0.56064792932 0.313452030912 0.0
0.809100406756 0.396658640281 0.0
0.212505910393 0.299266329176 0.0
0.313607849615 0.112002961572 0.0
0.439253845301 0.619950936237 0.0
0.582813726779 0.18888118694 0.0
0.935216952431 0.917810001769 0.0
0.599379243659 0.693202117387 0.0
0.106118708317 0.245027569248 0.0
0.21348408807 0.180746755271 0.0
0.254184437289 0.771590038679 0.0
0.483134258222 0.0236834036422 0.0
0.213495528758 0.718771310188 0.0
0.154164489201 0.218666777911 0.0
0.0840229378304 0.763216901439 0.0
0.715845753676 0.82523958612 0.0
0.450694018622 0.295219543557 0.0
0.0812629550303 0.549281972008 0.0
0.849399076971 0.626459030056 0.0
0.972277677339 0.999277675962 0.0
0.596608638401 0.669585947425 0.0
0.247866899183 0.0929818569871 0.0
0.366845364099 0.00653267040887 0.0
0.64366789682 0.971002947106 0.0
0.976796593616 0.447848923392 0.0
0.872700931664 0.00914227122894 0.0
0.405011660365 0.719098466994 0.0
0.907462701955 0.0137866641516 0.0
0.567298092707 0.00505213205413 0.0
0.30703076368 0.111904734902 0.0
0.459610665319 0.70181827932 0.0
0.56775720933 0.576614693701 0.0
0.439716574744 0.175239978467 0.0
0.952946623639 0.127692313817 0.0
0.811163556571 0.213069388837 0.0
0.754791961523 0.0726048465955 0.0
0.485623461458 0.121984579504 0.0
0.250135441263 0.375130629822 0.0
0.161750675988 0.610839404093 0.0
0.381042618989 0.445450542995 0.0
0.330113620207 0.223289463851 0.0
0.676838370438 0.17588014331 0.0
0.719371071564 0.071869737376 0.0
0.419239926487 0.15443616058 0.0
0.0534021573796 0.176220493422 0.0
0.0925511017171 0.532840801391 0.0
0.625197671726 0.66674816503 0.0
0.184029852745 0.481804650486 0.0
0.103482996433 0.747889631436 0.0
0.734398543512 0.0260482621655 0.0
0.994907324229 0.307407076952 0.0
0.0628059636555 0.558961827167 0.0
0.144132345661 0.804714842692 0.0
0.861225322566 0.00233979729655 0.0
0.975004842644 0.492059366305 0.0
0.132978323055 0.685982996193 0.0
0.996013797422 0.882277625271 0.0
0.708178606145 0.561222940436 0.0
0.549384715283 0.685127412834 0.0
0.933260669927 0.137440708558 0.0
0.446318520004 0.132861010983 0.0
0.116333642836 0.212981906233 0.0
0.638889757222 0.422661498651 0.0
0.701223538699 0.52886599824 0.0
0.473166955957 0.13657851416 0.0
0.69931667963 0.779234095001 0.0
0.860109351295 0.263338260183 0.0
0.728731953577 0.94339800562 0.0
0.818786630107 0.259502376635 0.0
0.379322073961 0.441813667589 0.0
0.262039570543 0.447213065697 0.0
0.767267533237 0.588259713423 0.0
0.630943906193 0.115082898366 0.0
0.283196253055 0.290831804714 0.0
0.470965017869 0.938692104929 0.0
0.582027258459 0.825455536089 0.0
0.342837667058 0.387213746417 0.0
0.0776581424339 0.902121056553 0.0
0.859681634239 0.482215056102 0.0
0.829143487891 0.394804598588 0.0
0.624646339994 0.982551534805 0.0
0.815457201388 0.993799024259 0.0
0.338292561018 0.711340974101 0.0
0.633656947999 0.574152472547 0.0
0.949565971365 0.57941931573 0.0
0.0418893041821 0.461606664486 0.0
0.849966393934 0.635510158657 0.0
0.368976403706 0.066844551419 0.0
0.0608563267252 0.256771733948 0.0
0.274964412078 0.872147735393 0.0
0.431726388617 0.769964098294 0.0
0.379433178773 0.894273769981 0.0
0.859843832205 0.85911690027 0.0
0.314011566598 0.11521267943 0.0
0.204433907336 0.0107265526561 0.0
0.83391020724 0.138985094023 0.0
0.525090994236 0.987975189608 0.0
0.440596517241 0.134459297152 0.0
0.883048799654 0.890407673026 0.0
0.108794648872 0.327092447957 0.0
0.263516916709 0.371214528599 0.0
0.900623639614 0.78332826945 0.0
0.772307277224 0.0824437223629 0.0
0.295850099838 0.0528436256262 0.0
0.0411985381771 0.661118405538 0.0
0.222300037621 0.774357759068 0.0
0.333430333617 0.831623438996 0.0
0.208412942726 0.416744871664 0.0
0.204943094685 0.559374431354 0.0
0.940867867446 0.131481522905 0.0
0.305615571791 0.176973172348 0.0
0.468911337462 0.897923700437 0.0
0.504771470867 0.112234807054 0.0
0.361612694589 0.435965771609 0.0
0.683868531137 0.982076887505 0.0
0.40084479251 0.270701648474 0.0
0.213519246986 0.887624231981 0.0
0.62941641465 0.595507465423 0.0
0.200979570044 0.126525787567 0.0
0.766630538465 0.296869391496 0.0
0.546136673415 0.330629593166 0.0
0.295700999404 0.277959266631 0.0
0.87811928279 0.832737481266 0.0
0.706271022927 0.16254203132 0.0
0.352377498358 0.467955160574 0.0
0.183155286148 0.520161701894 0.0
0.867916122458 0.582705664971 0.0
0.318192332081 0.237834415464 0.0
0.244877322085 0.480572397259 0.0
0.816946124513 0.269374345814 0.0
0.949211677457 0.79012337913 0.0
0.898584549678 0.460782583047 0.0
0.248940393964 0.372880663436 0.0
0.716262301054 0.729728617943 0.0
0.847035007451 0.894323682477 0.0
0.824656284573 0.158312065467 0.0
0.943906145458 0.856312137768 0.0
0.00160089414619 0.0881851087426 0.0
0.248925598675 0.926941971987 0.0
0.936494761157 0.457070483099 0.0
0.0664670860783 0.353145659338 0.0
0.879866736243 0.391615386373 0.0
[...]
POINT_DATA 2004
SCALARS value float 1
LOOKUP_TABLE default
0.477511979212
0.660304351126
0.485555219219
0.766495012714
0.759796752375
0.253478654923
0.950739153072
0.70022190159
0.227849184943
0.0603830111353
0.746170576289
0.681363059198
0.100489244642
0.109211869108
0.22451533272
0.0809620569755
0.0407540758318
0.31577422197
0.987733860962
0.98943702511
0.176578411871
0.480360259982
0.503697362738
0.0842929087414
0.280449317442
0.814136692032
0.223753269743
0.197559099864
0.947702987429
0.0328359437889
0.145372048416
0.844772478964
0.402177290648
0.0703519788812
0.577993642679
0.350828189749
0.010851174634
0.123255457859
0.255004578525
0.357012135417
0.881911478075
0.648987949253
0.275324426414
0.147562822196
0.299618625938
0.648610280505
0.848855879071
0.00153316546568
0.369882692919
0.856843405628
0.341872916714
0.0330724655147
0.157999246432
0.222254636485
0.541870792012
0.436136254726
0.86470824195
0.465048647233
0.88790529033
0.382918757344
0.106562798963
0.691411963305
0.0934596924487
0.503060840077
0.276564670975
0.378842887594
0.568153642674
0.589799054096
0.301310620048
0.198909998082
0.132406119534
0.0442786207997
0.0880084748513
0.553987127189
0.175816987031
0.605462568737
0.0772739528284
0.28281660254
0.38275668628
0.450326161192
0.1998131877
0.177968709564
0.346556899883
0.101868708101
0.771440190789
0.111575473311
0.920715351648
0.00334807109923
0.847379369396
0.680782374064
0.563673105503
0.797672364652
0.463234651034
0.0988759182509
0.545709439274
0.980533792256
0.896014268193
0.463944679124
0.523783577332
0.539803263885
0.724585489908
0.861920127857
0.45252718898
0.060555370174
0.34254323719
0.058606851499
0.442424957127
0.0815493128291
0.441156660687
0.129407764633
0.749163862461
0.186104924176
0.897250802273
0.0599320655015
0.013410179912
0.00690761486703
0.417972335617
0.540503163633
0.871126935779
0.139361701085
0.732140412911
0.238235925458
0.358534756687
0.776178509746
0.15885447128
0.101256436192
0.000463653479966
0.466335985904
0.489586736074
0.298516581409
0.649584512553
0.499117173353
0.373403875159
0.674326033588
0.776786708763
0.374927706395
0.0082126768715
0.418203511395
0.205448080358
0.0519712592865
0.0556151625054
0.355762661367
0.311916779215
0.42720907274
0.565911310356
0.0136635323015
0.295062539967
0.722474452592
0.947160580063
0.818051095992
0.534933568411
0.500029235399
0.287232065877
0.912952382385
0.54035501852
0.0516108710796
0.781676496911
0.227751171121
0.334256650472
0.471034710803
0.074230656324
0.480435954116
0.295284772917
0.176674673743
0.406404412161
0.790519063929
0.249510360177
0.420182119698
0.000197383974946
0.822032859009
0.20225961295
0.0187520505336
0.0818612239115
0.0718558021973
0.0111809923302
0.73818207249
0.0124109561813
0.0155176772531
0.282997167838
0.799169348283
0.949253395365
0.513787477014
0.0575123417742
0.34689316251
0.157467382156
0.373532966665
0.653670437168
0.457364337898
0.917340039848
0.555599172112
0.445920458344
0.172777907912
0.451433719536
0.0877930865508
0.285153930939
0.799778913395
0.545580324846
0.227345782739
0.0605625628812
0.0131583009917
0.192679473141
0.251879415552
0.00310411731516
0.078419521864
0.338412184917
0.00452648288552
0.779014338169
0.825551189002
0.0871025248284
0.39962952024
0.221683277149
0.879687194862
0.803436646716
0.414551648227
0.5179906976
0.31319052557
0.13314816834
0.392366921724
0.913512414601
0.723279071444
0.642222543241
0.324208748342
0.615093753645
0.190620041927
0.504065042325
0.825865475811
0.0731127980244
0.426018226929
0.483684337
0.0506412583815
0.0106714075043
0.688104190149
0.888466000912
0.15289541789
0.130266260131
0.413554144251
0.191046343394
0.137194602173
0.297249679517
0.646240913232
0.302962714892
0.182546243382
0.295354090876
0.0201814588001
0.210782004997
0.037650796328
0.402847230548
0.121242500158
0.286926696721
0.677025776623
0.193301488788
0.167977180597
0.132413708368
0.112883951207
0.418564395856
0.437112149888
0.588248730174
0.589864610483
0.0741423471395
0.432384159569
0.313711789103
0.345296505575
0.888682212896
0.0471465714039
0.7153965298
0.214920607066
0.877446248341
0.228498800368
0.537511463094
0.852711073969
0.613898890486
0.18741116223
0.389660179895
0.889844228745
0.543078615304
0.389615667918
0.571704353073
0.694340720797
0.407279526469
0.097330054384
0.310868621238
0.649293112703
0.583983406001
0.150666278627
0.249723203768
0.0764775734829
0.00137558046896
0.160329057294
0.196387023097
0.185625193944
0.347356558022
0.989573212326
0.631572601892
0.0318065684809
0.421949197609
0.324887024034
0.782527707247
0.757883118715
0.969715621806
0.223455255829
0.777338982975
0.0287473425376
0.945356597546
0.834275384591
0.0638975010346
0.141437046921
0.28035963993
0.229981012162
0.491952400991
0.0784360665556
0.493419033083
0.0584817932761
0.560196180335
0.112809985252
0.0751736331659
0.142075777648
0.372287667253
0.761018744021
0.379767552821
0.415449598529
0.650919454607
0.101712676127
0.31848051813
0.000802908410948
0.971342320444
0.021268019287
0.502222909801
0.0817739404001
0.351021208252
0.26611064997
0.446506737935
0.0413040580241
0.839538564304
0.544542687557
0.665478262379
0.424898060846
0.713143659974
0.117124925577
0.879226282192
0.752988445195
0.724738067728
0.940482635933
0.262583952713
0.663128887389
0.478685804411
0.135698819735
0.285408133094
0.319982597545
0.658002302698
0.333928144011
0.114583912311
0.745163569085
0.424190854747
0.22032646802
0.0618332162387
0.14790324045
0.0889882079524
0.82872373218
0.0767503437697
0.0507123015559
0.559935375547
0.559787938481
0.585754836567
0.125860664754
0.0311639435364
0.0544155522888
0.371948426355
0.135656492655
0.377359422817
0.267052122015
0.0267467561909
0.230503510859
0.26353342821
0.217546088017
0.0195986074407
0.807164452134
0.634612987718
0.117711210897
0.150080724802
0.0323402403517
0.558989204909
0.409607841597
0.0328816935858
0.0420738264593
0.977649543529
0.109585023595
0.33498056936
0.14269259224
0.84617719134
0.905280922467
0.52466930899
0.914555398392
0.398586134096
0.83040396833
0.00526999691846
0.0408016870734
0.00362587243682
0.233549406197
0.912875884074
0.322417278536
0.549522398102
0.0824943161098
0.157422518814
0.73832284546
0.384784566326
0.0515803675442
0.698947570689
0.486519703645
0.121681140723
0.661040576205
0.591360379255
0.887616243128
0.310336320457
0.768997153978
0.726961221258
0.222562696406
0.0414305126689
0.555552663845
0.927956404682
0.157885216615
0.910974185818
0.779201701771
0.565702739019
0.404263070825
0.023139475048
0.141699689478
0.304406285074
0.008732804188
0.221906295207
0.184688759753
0.583930655009
0.343054345821
0.152216045355
0.564384881831
0.896587761563
0.102308301903
0.0623203593982
0.518927584806
0.766932718884
0.52999971942
0.381863546029
0.129163290016
0.0620461596345
0.25861832588
0.536454034428
0.115042262208
0.417774325163
0.648824537116
0.176197703367
0.247752003234
0.355353482435
0.265268978215
0.140760357124
0.0582825453319
0.247209928066
0.384478087061
0.790639676046
0.82677151581
0.152636825815
0.836408000913
0.676891462165
0.0386860487836
0.300749893407
0.0811292289187
0.172712629542
0.472188106422
0.249855582207
0.36099522207
0.177697407182
0.15160041621
0.080806143565
0.641018596507
0.168588352431
0.477394064461
0.22378157607
0.661693239405
0.97201001171
0.348088606189
0.2640538478
0.361197687255
0.885297224557
0.874243341861
0.270352330973
0.269532023684
0.100954884571
0.61602433763
0.200481478384
0.279504853566
0.034790885029
0.131557215671
0.0383160178142
0.0285719384585
0.288207570429
0.702625770985
0.422725497441
0.0970585910407
0.644208297906
0.361522314282
0.494300447687
0.936756524656
0.294042339242
0.844045949534
0.945228660746
0.767119329784
0.825414066019
0.329795520767
0.310166523495
0.296603175358
0.0549716990816
0.606221617231
0.152118156782
0.390796538242
0.541890619617
0.294587018255
0.822837404931
0.389624474456
0.025531191197
0.367455900573
0.672588911767
0.320982168966
0.398129910048
0.290025540381
0.686002556762
0.647270425539
0.8047533239
0.191661772418
0.0288079474843
0.186189724949
0.102003120178
0.203361692471
0.047774638079
0.803005987999
0.282502774792
0.419470999975
0.896748644927
0.976244146306
0.0753330153667
0.752325224484
0.445921337686
0.75701400474
0.45451173407
0.00475821821877
0.0109123567762
0.591681543757
0.472525909337
0.0310684352109
0.668006145119
0.0622973329358
0.0859044432163
0.961806469354
0.0393019477685
0.91124520402
0.559302476303
0.261800006252
0.704100074959
0.0212325519526
0.493864682379
0.00693416430334
0.367915936065
0.185714769912
0.0830512700147
0.404236872726
0.0467121049258
0.671123628351
0.458577373572
0.00330186951528
0.872808045342
0.625056174185
0.265551111509
0.470591598484
0.0921094168869
0.27114327618
0.429469826361
0.324620856634
0.0521991411005
0.37631538079
0.0996686469407
0.212014589306
0.925478099132
0.109652969634
0.492405710759
0.964324595913
0.517689016188
0.577217517025
0.472691737814
0.314892339612
0.253558940893
0.825678574062
0.032311788799
0.845004603939
0.0614051863198
0.500352977256
0.56990979529
0.546842691275
0.150772338017
0.155631022078
0.951623036023
0.0313886899761
0.898399736475
0.83296003425
0.382016376565
0.396166406742
0.93729826938
0.299843065866
0.0530995014226
0.347393069212
0.651507085747
0.21953081313
0.276159266889
0.311819903999
0.496120697229
0.478001162481
0.111733660312
0.053928639146
0.794071447277
0.732372331521
0.871888721164
0.260594197233
0.340535661599
0.134479655643
0.214600591858
0.721255199624
0.559833800393
0.549313788112
0.419363076581
0.563955100874
0.223774687122
0.198096166918
0.650930990684
0.509016078958
0.147167409514
0.00875120314413
0.197606547116
0.23250604836
0.909682243525
0.436721767929
0.0210902619079
0.0450152095462
0.763159055809
0.325146448668
0.16941321448
0.55607731994
0.711970280703
0.382051518268
0.182352159788
0.130495461943
0.19295847396
0.123082595568
0.500738676673
0.070254283258
0.472715175037
0.6726802461
0.821190846945
0.184607274311
0.0430194697793
0.143600076179
0.134578545542
0.783276314787
0.367085229846
0.0611856716132
0.0647991404002
0.0081137059848
0.360354094286
0.0163402519587
0.388201678186
0.426207412975
0.721337530106
0.368122313469
0.0117506962195
0.851314482714
0.848904970344
0.0588207856375
0.383670111627
0.730846391826
0.178777811994
0.391231090285
0.105166950884
0.187077694568
0.638773557942
0.159503675777
0.183269752646
0.264364930096
0.883501888086
0.0375475505874
0.536740936103
0.610525290954
0.00199128936171
0.834693241807
0.550184107132
0.302984373352
0.641197611975
0.00991601872841
0.0129227019188
0.0157259706038
0.265496754023
0.959804090131
0.355270501926
0.32108569322
0.159921883204
0.735174859137
0.709633132903
0.95250964274
0.673965805747
0.292377625185
0.0767249571938
0.96638214034
0.838278325906
0.531456760502
0.606128572385
0.00409787563658
0.417962237833
0.521107822061
0.308628985152
0.045519176434
0.320737363509
0.634092043485
0.376161214934
0.0637892813031
0.319272386634
0.32706121674
0.24268341434
0.00489987830467
0.694862611658
0.443898044783
0.470190351105
0.916222785184
0.755619242178
0.281631859796
0.092906646184
0.824304829429
0.296346346524
0.377057412327
0.331720214016
0.316422549974
0.236597518629
0.257566920992
0.125760777138
0.714488868207
0.207431357214
0.102692931672
0.669179088303
0.358383018271
0.848390031575
0.761071263227
0.105413587395
0.213008954919
0.0772154569296
0.944172787715
0.423507603691
0.928867293879
0.40593663823
0.787094312188
0.20285732165
0.526790239079
0.237589416549
0.609296832673
0.673949432053
0.33747600059
0.624601991227
0.0205480371263
0.459839373113
0.593478734368
0.102196219076
0.168776659832
0.0465297806736
0.740440751058
0.976261094555
0.0241987692475
0.810702973379
0.754507321345
0.108986833577
0.00781004310373
0.466126130057
0.120047477672
0.149223965456
0.0957919940522
0.550126508774
0.233318572294
0.128472342812
0.154892993141
0.0883257015479
0.966617445039
0.271985844987
0.609385712158
0.638956634589
0.626138463881
0.359064822486
0.249304956604
0.414856170036
0.0293373248716
0.111002356094
0.0423096279297
0.00160290519176
0.176623428151
0.171218242769
0.280619117288
0.372162278342
0.813688027113
0.131600061787
0.413528992101
0.189964586912
0.0151689464711
0.748450097897
0.526377098965
0.0897100789875
0.724286626758
0.153943388592
0.593963278897
0.25239060032
0.637810673314
0.0451861003225
0.552712520372
0.622586303218
0.294522780708
0.379918191516
0.00770521421206
0.507685244616
0.0200702286034
0.272810151508
0.181451431013
0.913915347008
0.332395294722
0.54119861902
0.27815615499
0.760675734414
0.0938544413654
0.959340861833
0.0632601826546
0.981073258304
0.63709175525
0.183288130496
0.751687632268
0.199669184208
0.194752254568
0.680118190754
0.468333100152
0.570120955161
0.0914333810878
0.306683458706
0.0377758246372
0.468668389277
0.363645166047
0.139757214882
0.0420000524967
0.139800347898
0.857607963367
0.0245623278662
0.562221865879
0.221593187519
0.749672109607
0.842099716739
0.5632002436
0.65381078981
0.684069741521
0.290971140773
0.342112541786
0.957453455789
0.463871314493
0.153889965696
0.0147055278042
0.0705544685895
0.0812405089302
0.944430584123
0.808214716621
0.424054965453
0.497232299119
0.997487313092
0.157503962063
0.910375331084
0.11887527169
0.609127316511
0.727752527869
0.795554437049
0.01100845926
0.45231578709
0.884421446313
0.481375824295
0.431702773022
0.904477964707
0.468129992136
0.335301113118
0.237335686157
0.136105634956
0.687949020684
0.563760543872
0.483891182228
0.224698632519
0.168499485848
0.281049980214
0.665969428979
0.509277443727
0.436579357779
0.341011842262
0.0426833187607
0.488586429406
0.415574331575
0.113888743962
0.919734052597
0.0937292734341
0.0402731872098
0.135648520737
0.416859660459
0.794765079634
0.0281919570861
0.838678703377
0.164064089554
0.3406392031
0.717060037063
0.361528974108
0.351688308794
0.883274183712
0.026354679394
0.293596052902
0.241515084201
0.00233399538445
0.490339381271
0.0511734876147
0.807480278091
0.291438206863
0.111007356689
0.0757251335021
0.128405997601
0.90488347642
0.065504281771
0.549911659098
0.874943755787
0.00733129653728
0.194339401157
0.0859384268021
0.993760019582
0.0208385244367
0.0649400229049
0.0666092505387
0.0108943186293
0.353199666996
0.198226219973
0.22431954519
0.939241297852
0.697252143639
0.831062221082
0.741704216976
0.553106382335
0.0498567312479
0.434082303716
0.663031896471
0.496248092954
0.0713021608389
0.0148655456576
0.0839649132975
0.171076548826
0.373806868066
0.552532442822
0.357881849156
0.0358453045449
0.188632452837
0.847558009441
0.13685364076
0.190177950186
0.560092143558
0.0187543947494
0.121564876328
0.368699813724
0.0631705120964
0.0944029489292
0.0716748921965
0.19775664377
0.0470006652725
0.867561141541
0.754559203929
0.0534844801164
0.624557088462
0.254057613129
0.761253842486
0.592206298492
0.0167272654013
0.336216619505
0.237747247937
0.00482550865654
0.135111767566
0.531101567521
0.41152916385
0.589078617438
0.645134108774
0.0154057564374
0.887689495928
0.584391291757
0.434005169148
0.564952180693
0.250453022159
0.631320955087
0.521868804675
0.0499502679373
0.0338501207339
0.674892808779
0.587277773717
0.780369353512
0.267145649785
0.25606882872
0.219772932955
0.885867812623
0.0240929213309
0.13921599392
0.138057415257
0.187014942764
0.00829936345171
0.365777518208
0.23322614108
0.822858614759
0.0233223697545
0.177178378116
0.167676521648
0.492429342929
0.005783041047
0.804328937511
0.562096734386
0.229673063792
0.373671326732
0.871886733043
0.53316523234
0.407548116721
0.550575520459
0.446452184308
0.961858090024
0.977938697807
0.338022646466
0.250170072013
0.0712682912407
0.929830624575
0.111576983502
0.813147219925
0.71171074538
0.23574491742
0.139377815771
0.515597390863
0.0484160449494
0.422100618254
0.0364754185179
0.32245017093
0.534088198254
0.167816349959
0.0148855144208
0.586682362363
0.84315661415
0.100695582815
0.0493942026869
0.0410558449341
0.992656478111
0.6467891075
0.961496561741
0.276312226817
0.317436968431
0.349071191772
0.132238170601
0.631316904871
0.690752973002
0.0650265189805
0.169204326409
0.154483549966
0.327769555392
0.516279638415
0.608002682
0.439027907017
0.453703731993
0.180058455413
0.941731976149
0.056608165184
0.949827947003
0.112735409045
0.0620148029292
0.857900005436
0.621788223178
0.111236189559
0.0521166830266
0.218322052429
0.903892599599
0.0237354374185
0.215309930208
0.120071444276
0.045990807371
0.335099001042
0.0140145577926
0.668576769686
0.529012606464
0.294355611346
0.319475955353
0.258502048078
0.96869834708
0.580645631563
0.804958526866
0.0718579984571
0.253171613495
0.506646657441
0.00698500689898
0.572746573449
0.656550803995
0.194819067223
0.163378404524
0.226789214866
0.271757433402
0.09879006867
0.51871974086
0.0538140132287
0.350508617814
0.160979313188
0.0398619247289
0.987680701347
0.267928418164
0.176846635872
0.00205209145026
0.575690042279
0.522341791161
0.0130617941377
0.621317084053
0.414482388027
0.45206469447
0.441165198525
0.270087647194
0.454739899284
0.0104361095486
0.439200165486
0.852859122289
0.848452468632
0.320773114924
0.438593748031
0.411349992558
0.0982001334993
0.709395293591
0.516725384447
0.653850414174
0.548367479744
0.584978087907
0.468743604763
0.292338588841
0.483873377143
0.28072151291
0.488656829798
0.46022934857
0.56042146719
0.18820661737
0.187664358876
0.899923756945
0.316308263502
0.888263740024
0.367997008265
0.614664025992
0.624858067987
0.0585577979983
0.646593800302
0.898956271613
0.696234807401
0.136999986461
0.497058808041
0.1980540963
0.266038405698
0.605637098381
0.489137257985
0.241862264123
0.000713197991936
0.472863497698
0.268682952802
0.143995036302
0.99257963811
0.738112438612
0.860611067363
0.418206537974
0.132350687318
0.97660599574
0.241285262937
0.356948368931
0.50392188162
0.149198267137
0.91469026377
0.191759435418
0.532598242436
0.230300026603
0.544741607873
0.087052311101
0.142136862842
0.0348374544397
0.488727435672
0.626779933474
0.939614356837
0.234922303065
0.288079897838
0.00489865293777
0.563702110214
0.46170067269
0.0470111276763
0.445258604791
0.259447027076
0.63243109884
0.117989075432
0.0320819550553
0.286021363719
0.00695528239072
0.767187375929
0.615468176902
0.758048175853
0.142184351026
0.28840971413
0.679071123019
0.251852828667
0.812555131154
0.15656114777
0.690667011366
0.0100082149966
0.0299831861307
0.618830582862
0.550983446175
0.837714023245
0.51047945726
0.802456970858
0.325981966346
0.79974673365
0.553028970923
0.880778151629
0.510216475586
0.231321145967
0.832094617247
0.652476558017
0.418161760665
0.00505105115372
0.0611981032776
0.216712123364
0.80980121603
0.779646157448
0.360089524993
0.0321587250201
0.506588133596
0.00412783646627
0.984661130873
0.0723959212882
0.364896144896
0.00732543098262
0.313154572581
0.339657592982
0.923694007575
0.282042699415
0.670229612879
0.284154109846
0.939393264902
0.018546795352
0.304547149946
0.698215957113
0.495805937466
0.216576078373
0.404503511605
0.266263650044
0.332896334093
0.693499388183
0.999185331485
0.58178223337
0.00738230172203
0.109578929095
0.0453194783754
0.0720969934854
0.121151818524
0.674515165113
0.484035287291
0.270850903123
0.102495460332
0.347786169311
0.0409768634188
0.293438528527
0.0371706827083
0.0812607635044
0.71209279633
0.00577116983651
0.00391282584078
0.749988087717
0.822022033626
0.732627766189
0.12288382664
0.980713428581
0.297058338367
0.510381956153
0.265952960371
0.843408362374
0.0175097976807
0.746163672648
0.415040185322
0.673321323236
0.441423938279
0.22781485908
0.99722169383
0.374412619357
0.598517924577
0.74570938482
0.575663848768
0.332336496935
0.833430653792
0.935469143162
0.129840079093
0.183317878111
0.315016500502
0.252650252398
0.630845913329
0.917315569081
0.148443952822
0.546715923228
0.694669403726
0.280868348487
0.0626179738317
0.00956810923428
0.674626302195
0.0283028950771
0.434189367836
0.107391463195
0.086268918698
0.0631062136832
0.214267279835
0.5563026426
0.533925840896
0.105855870671
0.0720285253429
0.599407762055
0.492193950495
0.0154988488884
0.592649060911
0.498309965248