# vtk DataFile Version 2.0
Sample triangulation
ASCII
DATASET UNSTRUCTURED_GRID

POINTS 204 float
0.28109175833 0.673480531398 0.0
0.472257947206 0.42743872192 0.0
0.605649226049 0.938500062302 0.0
0.407608966479 0.835671779674 0.0
0.349687581247 0.488221761312 0.0
0.351566368686 0.835855955202 0.0
0.940470271621 0.222168499192 0.0
0.196126210514 0.504238748719 0.0
0.000420863300656 0.108071177273 0.0
0.384879781451 0.859218501002 0.0
0.464403602679 0.527810095437 0.0
0.865512042123 0.98597920833 0.0
0.0855392390175 0.601034861828 0.0
0.240090494017 0.493402471427 0.0
0.754905257837 0.662228577879 0.0
0.0368948470504 0.475416032133 0.0
0.71073966962 0.0463955342537 0.0
0.348796169075 0.651817865752 0.0
0.656181392442 0.144585880779 0.0
0.654017425411 0.135208697144 0.0
0.673718004382 0.744230896341 0.0
0.301265769424 0.103115517999 0.0
0.482164921371 0.15337620372 0.0
0.642385752985 0.580560357468 0.0
0.557047635208 0.0849650520294 0.0
0.520011160455 0.154171054066 0.0
0.570483343433 0.672476393276 0.0
0.385974845286 0.683689049179 0.0
0.314781985229 0.749113880336 0.0
0.695876150115 0.93507221479 0.0
0.844709720555 0.0163660579102 0.0
0.120640213054 0.315190450905 0.0
0.732212635124 0.165652609799 0.0
0.413508219319 0.472112160782 0.0
0.722653112594 0.444314022115 0.0
0.688777062673 0.450620349195 0.0
0.0882837097704 0.900955005929 0.0
0.725943027319 0.305413202364 0.0
0.647425812883 0.652216468484 0.0
0.818265164048 0.976729778054 0.0
0.714886213762 0.267598546925 0.0
0.791501750165 0.171472486183 0.0
0.801325905056 0.320804047015 0.0
0.356789089942 0.338683921333 0.0
0.492111477793 0.509257859355 0.0
0.723984963768 0.0783715322823 0.0
0.83542578777 0.144514045937 0.0
0.0977199746544 0.905782717382 0.0
0.209823324493 0.961515003527 0.0
0.487767392186 0.097020699247 0.0
0.601585607113 0.205670855456 0.0
0.810268810334 0.204897180918 0.0
0.461417620757 0.747517920365 0.0
0.428943176873 0.149707127053 0.0
0.106315756827 0.184029550989 0.0
0.793960133704 0.613709007644 0.0
0.879644376288 0.383764061404 0.0
0.908355239472 0.683677302876 0.0
0.932999458795 0.718588329174 0.0
0.217346001419 0.760850853889 0.0
0.500081698357 0.347476606778 0.0
0.242515601265 0.590421634857 0.0
0.195245199588 0.964570116807 0.0
0.182010419618 0.957725606055 0.0
0.259038080334 0.864316561803 0.0
0.434696854934 0.802580558027 0.0
0.255243758382 0.52545282381 0.0
0.434087441547 0.101030094378 0.0
0.308473432837 0.768869071845 0.0
0.763920499279 0.819774597514 0.0
0.250207527966 0.0913590800938 0.0
0.838269977764 0.677747534758 0.0
0.682910722412 0.498495529049 0.0
0.904456566273 0.311782643728 0.0
0.573698563496 0.618595192149 0.0
0.436946589588 0.636652278885 0.0
0.577678302318 0.267946924666 0.0
0.705789205003 0.0213544861545 0.0
0.106644644696 0.366115673665 0.0
0.995688822785 0.330350325675 0.0
0.150989134085 0.838714091649 0.0
0.600680146426 0.137404744859 0.0
0.761747356902 0.79723551209 0.0
0.102007852133 0.91880805276 0.0
0.299692978819 0.0464783926916 0.0
0.382668740919 0.497749190372 0.0
0.707591933147 0.0250037108947 0.0
0.604852252516 0.896399942567 0.0
0.489552276318 0.970868280313 0.0
0.443472562175 0.660208618252 0.0
0.163407773698 0.0492105350784 0.0
0.230851530352 0.78150367144 0.0
0.0082486644412 0.235564857156 0.0
0.913109671137 0.648324897411 0.0
0.298065788234 0.277477821202 0.0
0.972756363385 0.0208183615791 0.0
0.681195344582 0.253717703156 0.0
0.344845274425 0.926436933773 0.0
0.274685152842 0.282288682007 0.0
0.619575429467 0.404852614158 0.0
0.524327960882 0.0651732133738 0.0
0.517910729139 0.0556340867416 0.0
0.344728161318 0.0108413010468 0.0
0.173160330166 0.981666975461 0.0
0.128829387722 0.957259438812 0.0
0.128049897015 0.561132800496 0.0
0.690494508767 0.765854820622 0.0
0.430533102753 0.368761085977 0.0
0.606631846821 0.38489753584 0.0
0.897925202681 0.913014284927 0.0
0.0553139797822 0.925386111936 0.0
0.588480978346 0.518747955034 0.0
0.803962421412 0.824029182408 0.0
0.868337272473 0.793715040085 0.0
0.61128752183 0.17652161412 0.0
0.548400021496 0.626707052057 0.0
0.192170424809 0.25823791627 0.0
0.898976926789 0.384841488376 0.0
0.189950629224 0.615409733311 0.0
0.968533467088 0.610331398592 0.0
0.242566483883 0.427640386919 0.0
0.0855152428635 0.623730134048 0.0
0.145216272806 0.537657560212 0.0
0.0184546414699 0.306097996312 0.0
0.400237274717 0.489292974664 0.0
0.392766965787 0.222139851059 0.0
0.742657726531 0.707028399301 0.0
0.383004135788 0.362600873131 0.0
0.313038673528 0.241244155362 0.0
0.789036818789 0.494642331439 0.0
0.767667992031 0.705337655485 0.0
0.667973238916 0.730091462476 0.0
0.364646994185 0.81049360997 0.0
0.133030035274 0.0586446586537 0.0
0.682797680532 0.320323876824 0.0
0.625500239512 0.266426854923 0.0
0.192124511208 0.468361268538 0.0
0.876975689448 0.827622629553 0.0
0.148805347549 0.99018206971 0.0
0.0960024721653 0.755588999588 0.0
0.811894672578 0.86460817228 0.0
0.200145568642 0.452638419859 0.0
0.411974963299 0.289419809664 0.0
0.10259855199 0.725085790968 0.0
0.185523695371 0.784649432826 0.0
0.606960475832 0.605072068748 0.0
0.0578361761941 0.233417458985 0.0
0.140715162414 0.457363808602 0.0
0.725472393428 0.652359589703 0.0
0.653046102352 0.975174452751 0.0
0.327222126387 0.0722452287583 0.0
0.289200687997 0.35887286491 0.0
0.079235460979 0.762948591761 0.0
0.984940582555 0.442739449801 0.0
0.406208770327 0.763655133697 0.0
0.250750408579 0.125890296054 0.0
0.0365888733882 0.310324554299 0.0
0.545880766093 0.120118009832 0.0
0.498350738236 0.736466580814 0.0
0.902076501829 0.921964020776 0.0
0.067429808086 0.805141599076 0.0
0.375283368111 0.396894839331 0.0
0.0970616338885 0.0126836126882 0.0
0.0453392976558 0.715011745837 0.0
0.948082861711 0.165546245787 0.0
0.385311385977 0.803826548909 0.0
0.210556229578 0.875427775537 0.0
0.698246194117 0.385169133333 0.0
0.898748796167 0.793294690721 0.0
0.711058317747 0.190297345919 0.0
0.275524450796 0.229563532162 0.0
0.842278204083 0.964449705551 0.0
0.577023539065 0.121445750701 0.0
0.782103484759 0.258533796493 0.0
0.333751158294 0.276077961594 0.0
0.457652196095 0.779277814546 0.0
0.728763432771 0.862992496446 0.0
0.928641477218 0.53081033119 0.0
0.434685815499 0.116704240164 0.0
0.195238701768 0.542080142254 0.0
0.644008133579 0.0254924085453 0.0
0.206712547145 0.945125769222 0.0
0.463729324797 0.141268285911 0.0
0.759719969027 0.320571243315 0.0
0.476007521229 0.227085428863 0.0
0.255191493044 0.0660486337527 0.0
0.363948021668 0.828576389995 0.0
0.0431852516002 0.861145139963 0.0
0.384681382617 0.911590379419 0.0
0.226353068845 0.762868789768 0.0
0.369890041641 0.566957145942 0.0
0.319191037862 0.253430279948 0.0
0.486605734537 0.806739683652 0.0
0.70377881048 0.432433696758 0.0
0.448126283897 0.327221723011 0.0
0.757226477662 0.807422991678 0.0
0.430555273072 0.673271687706 0.0
0.954747669227 0.526768700459 0.0
0.193418599809 0.22991814352 0.0
0.161357417894 0.836178885061 0.0
0.0 0.0 0.0
0.999999880791 0.0 0.0
0.0 0.999999880791 0.0
0.999999880791 0.999999880791 0.0

CELLS 402 1608
3 201 102 200
3 203 79 201
3 138 203 202
3 8 202 200
3 8 92 202
3 123 15 202
3 92 123 202
3 153 79 203
3 138 149 203
3 149 138 88
3 95 30 201
3 77 102 201
3 30 77 201
3 159 109 203
3 146 123 92
3 8 146 92
3 84 90 102
3 102 180 101
3 77 180 102
3 79 164 201
3 164 95 201
3 95 164 30
3 153 117 79
3 117 73 79
3 39 149 29
3 119 153 203
3 153 119 197
3 149 2 29
3 2 87 29
3 2 149 88
3 87 2 88
3 150 84 102
3 33 1 44
3 1 33 161
3 54 31 146
3 54 155 198
3 54 146 8
3 102 162 200
3 90 162 102
3 162 8 200
3 73 6 79
3 6 164 79
3 177 153 197
3 177 117 153
3 177 93 55
3 119 177 197
3 177 119 93
3 110 187 36
3 187 110 202
3 138 103 88
3 159 171 109
3 176 39 29
3 176 195 69
3 87 176 29
3 158 26 131
3 192 87 88
3 3 192 88
3 67 102 101
3 67 150 102
3 146 156 123
3 31 156 146
3 123 156 15
3 185 90 84
3 150 21 84
3 21 185 84
3 116 54 198
3 54 116 31
3 155 133 90
3 54 133 155
3 133 162 90
3 133 54 8
3 162 133 8
3 6 46 164
3 164 46 30
3 46 45 30
3 45 46 41
3 23 72 55
3 187 160 36
3 160 163 152
3 163 160 187
3 15 163 202
3 163 187 202
3 104 103 138
3 104 138 202
3 110 104 202
3 163 143 152
3 143 163 121
3 11 159 203
3 11 171 159
3 171 11 39
3 149 11 203
3 39 11 149
3 140 176 69
3 140 137 109
3 171 140 109
3 140 171 39
3 176 140 39
3 176 106 195
3 106 176 87
3 188 3 88
3 188 9 3
3 97 188 88
3 9 188 97
3 26 38 131
3 65 192 3
3 65 3 165
3 175 52 158
3 192 175 158
3 65 175 192
3 71 113 130
3 93 71 55
3 113 168 137
3 109 168 203
3 137 168 109
3 107 1 161
3 127 107 161
3 107 127 194
3 194 142 184
3 127 142 194
3 25 172 81
3 157 172 25
3 172 180 81
3 49 67 101
3 49 157 25
3 122 147 7
3 147 122 15
3 122 105 15
3 105 12 15
3 12 105 121
3 12 163 15
3 163 12 121
3 147 136 7
3 141 136 147
3 43 127 161
3 43 142 127
3 156 78 15
3 78 156 31
3 78 147 15
3 78 141 147
3 70 155 90
3 185 70 90
3 70 21 155
3 21 70 185
3 21 170 155
3 155 170 198
3 170 116 198
3 53 21 150
3 116 151 31
3 151 43 161
3 45 16 30
3 173 169 41
3 46 51 41
3 51 173 41
3 51 46 6
3 51 6 73
3 173 51 73
3 117 56 73
3 177 56 117
3 72 129 55
3 129 72 34
3 129 177 55
3 129 56 177
3 56 129 34
3 111 72 23
3 1 111 44
3 83 110 36
3 83 104 110
3 139 160 152
3 143 139 152
3 105 118 121
3 118 143 121
3 33 4 161
3 10 33 44
3 112 113 137
3 140 112 137
3 112 140 69
3 20 106 87
3 192 20 87
3 20 158 131
3 20 192 158
3 106 82 195
3 195 82 69
3 82 112 69
3 113 82 130
3 112 82 113
3 5 64 68
3 5 9 97
3 64 5 97
3 48 97 88
3 103 48 88
3 38 148 131
3 148 23 55
3 148 38 23
3 145 38 26
3 74 145 26
3 38 145 23
3 145 111 23
3 111 145 74
3 58 168 113
3 119 58 93
3 58 119 203
3 168 58 203
3 107 60 1
3 60 107 194
3 60 194 184
3 76 60 184
3 25 50 184
3 50 76 184
3 180 24 101
3 172 24 180
3 24 172 157
3 43 174 142
3 128 170 21
3 67 178 150
3 178 53 150
3 49 178 67
3 125 174 191
3 174 125 142
3 128 125 191
3 142 125 184
3 125 53 184
3 53 125 21
3 125 128 21
3 151 120 31
3 120 78 31
3 78 120 141
3 120 151 161
3 4 120 161
3 170 98 116
3 98 151 116
3 86 180 77
3 86 16 180
3 86 77 30
3 16 86 30
3 180 19 81
3 16 19 180
3 19 16 45
3 32 45 41
3 169 32 41
3 32 19 45
3 42 56 34
3 42 173 73
3 56 42 73
3 47 83 36
3 118 59 143
3 179 122 7
3 122 179 105
3 179 118 105
3 4 85 190
3 154 65 165
3 175 154 52
3 154 175 65
3 0 59 118
3 82 126 130
3 126 82 106
3 20 126 106
3 126 20 131
3 148 126 131
3 132 5 68
3 132 154 165
3 64 181 166
3 181 64 97
3 48 181 97
3 14 148 55
3 71 14 55
3 14 71 130
3 126 14 130
3 14 126 148
3 71 57 113
3 57 58 113
3 57 71 93
3 58 57 93
3 60 108 1
3 108 60 76
3 100 49 101
3 24 100 101
3 49 100 157
3 100 24 157
3 182 178 49
3 178 182 53
3 128 94 170
3 94 98 170
3 94 128 191
3 174 94 191
3 98 94 151
3 151 94 43
3 94 174 43
3 96 114 169
3 114 96 50
3 114 25 81
3 114 50 25
3 18 32 169
3 32 18 19
3 114 18 169
3 19 18 81
3 18 114 81
3 167 108 134
3 144 139 143
3 59 144 143
3 66 4 190
3 66 179 7
3 124 10 190
3 85 124 190
3 10 124 33
3 124 4 33
3 124 85 4
3 0 189 59
3 154 196 52
3 196 154 27
3 52 196 158
3 196 89 158
3 115 10 44
3 115 74 26
3 111 115 44
3 115 111 74
3 115 26 158
3 89 115 158
3 5 186 9
3 132 186 5
3 9 186 3
3 3 186 165
3 186 132 165
3 181 63 166
3 83 63 104
3 63 83 166
3 104 63 103
3 99 111 1
3 108 99 1
3 111 99 72
3 167 99 108
3 40 169 173
3 40 96 169
3 96 40 134
3 50 135 76
3 96 135 50
3 135 96 134
3 135 108 76
3 108 135 134
3 53 22 184
3 182 22 53
3 22 25 184
3 22 49 25
3 22 182 49
3 183 42 34
3 167 183 34
3 42 183 173
3 139 80 160
3 144 80 139
3 160 80 36
3 80 47 36
3 83 80 166
3 47 80 83
3 13 120 4
3 66 13 4
3 120 13 141
3 13 66 7
3 136 13 7
3 13 136 141
3 189 28 68
3 28 189 0
3 154 28 27
3 28 17 27
3 17 28 0
3 28 132 68
3 132 28 154
3 91 144 59
3 189 91 59
3 91 64 166
3 144 91 166
3 64 91 68
3 91 189 68
3 61 17 0
3 61 0 118
3 61 66 190
3 17 61 190
3 179 61 118
3 66 61 179
3 196 75 89
3 75 17 190
3 17 75 27
3 75 196 27
3 10 75 190
3 115 75 10
3 75 115 89
3 62 48 103
3 63 62 103
3 62 181 48
3 62 63 181
3 72 35 34
3 99 35 72
3 37 167 134
3 37 183 167
3 40 37 134
3 37 40 173
3 183 37 173
3 199 144 166
3 80 199 166
3 199 80 144
3 193 99 167
3 193 35 99
3 193 167 34
3 35 193 34

CELL_TYPES 402
5
5
5
5
5
5
5
5
5
5
5
5
5
5
5
5
5
5
5
5
5
5
5
5
5
5
5
5
5
5
5
5
5
5
5
5
5
5
5
5
5
5
5
5
5
5
5
5
5
5
5
5
5
5
5
5
5
5
5
5
5
5
5
5
5
5
5
5
5
5
5
5
5
5
5
5
5
5
5
5
5
5
5
5
5
5
5
5
5
5
5
5
5
5
5
5
5
5
5
5
5
5
5
5
5
5
5
5
5
5
5
5
5
5
5
5
5
5
5
5
5
5
5
5
5
5
5
5
5
5
5
5
5
5
5
5
5
5
5
5
5
5
5
5
5
5
5
5
5
5
5
5
5
5
5
5
5
5
5
5
5
5
5
5
5
5
5
5
5
5
5
5
5
5
5
5
5
5
5
5
5
5
5
5
5
5
5
5
5
5
5
5
5
5
5
5
5
5
5
5
5
5
5
5
5
5
5
5
5
5
5
5
5
5
5
5
5
5
5
5
5
5
5
5
5
5
5
5
5
5
5
5
5
5
5
5
5
5
5
5
5
5
5
5
5
5
5
5
5
5
5
5
5
5
5
5
5
5
5
5
5
5
5
5
5
5
5
5
5
5
5
5
5
5
5
5
5
5
5
5
5
5
5
5
5
5
5
5
5
5
5
5
5
5
5
5
5
5
5
5
5
5
5
5
5
5
5
5
5
5
5
5
5
5
5
5
5
5
5
5
5
5
5
5
5
5
5
5
5
5
5
5
5
5
5
5
5
5
5
5
5
5
5
5
5
5
5
5
5
5
5
5
5
5
5
5
5
5
5
5
5
5
5
5
5
5
5
5
5
5
5
5
5
5
5
5
5
5
5
5
5
5
5
5
5
5
5
5
5
5
5
5
5
5
5
5
5
5
5
5
5
5

POINT_DATA 204
SCALARS value float 1
LOOKUP_TABLE default
0.982332607798
1.00450563758
1.19855965177
1.10975518905
0.977795142803
1.09501348662
0.88974202543
0.911812125431
0.908490260392
1.12275475346
0.999506419757
1.10802232606
0.850807245926
0.934718911861
0.962079127104
0.807459797734
1.17509124863
1.00018608319
1.10730215821
1.11555420616
1.02990934693
1.12526886437
1.12730515521
0.986310829204
1.18411963609
1.12659207533
1.02508978568
1.02095649785
1.02814068664
1.16290404758
1.12195982347
0.896049807777
1.05957244123
0.99331931909
0.954589875562
0.967346590465
0.991292742801
0.986900327675
1.00143651377
1.13425785706
1.00786511935
1.02322259834
0.943002720424
1.00552873986
1.00002347945
1.13609995024
1.0139562968
1.00283440428
1.13745532401
1.17614563388
1.07929711493
0.990860956417
1.0615992748
1.12485712178
0.946343224937
0.929152106826
0.877552006242
0.875450515726
0.869612408854
0.98821982115
1.02353608176
0.943534693729
1.13082777077
1.11448827927
1.07752194618
1.09121362397
0.942463797469
1.16746241839
1.03624971441
1.03313902341
1.11025655843
0.920505418599
0.967099330108
0.879713193773
1.00867071611
1.01480666119
1.04897627368
1.20532872555
0.872141652527
0.804989216718
0.992943665026
1.12900738594
1.02003533699
1.01714779938
1.18005251953
0.986332699157
1.20024663394
1.15735695646
1.24808176231
1.02272583506
1.09408326847
1.00682661414
0.842068906615
0.861862679792
1.00877698803
1.00613520724
1.02821389745
1.17090326183
0.996637104873
0.994768474047
1.20741593453
1.21791486643
1.24006883339
1.13335119766
1.07392329216
0.87405702469
1.03498882316
1.01247517658
1.00187999147
1.01231150283
0.983347892642
0.992550488478
1.01268149416
0.951796696093
1.09664262526
1.01380655718
0.964341164177
0.864225883328
0.920524920604
0.812734661547
0.94078927515
0.855141379284
0.882979406153
0.823420769999
0.990210273468
1.06791413433
0.984105655589
1.00520398174
1.03251755645
0.919878596472
0.970947770822
1.02503532162
1.08121547233
1.06197202676
0.998869157117
1.03956889584
0.910477303834
0.965823587542
1.12405285856
0.906750213116
1.03630430615
0.916063530079
1.03727347245
0.898288226205
0.982288675852
0.999599676392
0.88298894709
0.880497887985
0.972753707638
1.2242980399
1.16546709982
0.975778678923
0.897716613736
0.793034464012
1.06259840581
1.08094181469
0.836295635386
1.15281327578
1.05750644214
1.01652314335
0.910277687023
0.995088536761
1.07801127806
0.851729489283
0.914919736476
1.08237434284
1.05883401665
0.974222632943
0.929620512822
1.0527124516
1.02300728785
1.10357969023
1.14725334974
0.978948298196
1.02275749074
1.07918136809
1.08267068409
0.83294785361
1.15332571722
0.912918461657
1.22681221721
1.1186464419
1.13584047195
0.9653546004
1.07670637006
1.13698791196
1.09357517209
0.924729605819
1.16895274346
0.994234044998
0.987631781124
1.02850341046
1.09846069015
0.963714106607
1.02753368528
1.02874893215
1.02552072467
0.813768884197
0.979172016314
0.998338825626
1.0
1.00000011921
0.999999880791
1.0
