# vtk DataFile Version 2.0
Sample triangulation
ASCII
DATASET UNSTRUCTURED_GRID

POINTS 200 float
0.903127747239 0.914026319464 0.0
0.274846961817 0.351882133976 0.0
0.161186659166 0.217895605715 0.0
0.717117211474 0.655424825031 0.0
0.233795051006 0.795158223222 0.0
0.591289274982 0.922841132637 0.0
0.176383294732 0.389954012146 0.0
0.455947503247 0.676627291027 0.0
0.997364751062 0.339340714385 0.0
0.0484811676749 0.253637914541 0.0
0.686063130246 0.98643363986 0.0
0.825591576969 0.167641674467 0.0
0.121719093209 0.831934114485 0.0
0.174817696662 0.332717998282 0.0
0.588874467941 0.637617029841 0.0
0.650829587744 0.293311561632 0.0
0.564478041764 0.0596802982479 0.0
0.52533898171 0.577688156626 0.0
0.763525347769 0.378476922347 0.0
0.399666184972 0.676347630197 0.0
0.854630968463 0.733997953054 0.0
0.724078739041 0.776216078618 0.0
0.292905238593 0.960723269025 0.0
0.103676665729 0.131565707268 0.0
0.420375534631 0.037972408084 0.0
0.0585965397659 0.350983429999 0.0
0.563229530213 0.631231190734 0.0
0.975324052113 0.0158815305751 0.0
0.577768135744 0.169983294167 0.0
0.160969775463 0.828236033784 0.0
0.695111545048 0.712081886028 0.0
0.828896126957 0.00159972318223 0.0
0.753407073881 0.010949945598 0.0
0.712913534959 0.427641466124 0.0
0.784243668781 0.647717798388 0.0
0.661302530259 0.779467096384 0.0
0.20880367047 0.42468873604 0.0
0.318325977177 0.604218590009 0.0
0.558844653892 0.399199233268 0.0
0.685267268895 0.319578311836 0.0
0.270136698306 0.680199300769 0.0
0.11663984958 0.494792769861 0.0
0.252081224814 0.325370880216 0.0
0.974822554411 0.684173601911 0.0
0.851400173186 0.632705090707 0.0
0.106048204886 0.0880672112515 0.0
0.285203350207 0.225898762638 0.0
0.589824873621 0.0271810544165 0.0
0.399452759297 0.552619377577 0.0
0.00394514944522 0.764162748768 0.0
0.793683904424 0.634325627754 0.0
0.561311570141 0.533504387984 0.0
0.271105469429 0.145737062212 0.0
0.102223240647 0.496025834096 0.0
0.789942401418 0.0751456343533 0.0
0.671832790861 0.863376787066 0.0
0.613628430078 0.541504063148 0.0
0.541827954331 0.0215302102718 0.0
0.629213527804 0.773021529072 0.0
0.316004119878 0.466725651103 0.0
0.155698313497 0.0843151114189 0.0
0.235984909476 0.12605876898 0.0
0.00953495852041 0.218728657908 0.0
0.768363021749 0.684015325061 0.0
0.960430236023 0.557152609845 0.0
0.103736244113 0.881886514903 0.0
0.861065368379 0.28467934795 0.0
0.773724660757 0.0939366919344 0.0
0.369897910768 0.0971769208706 0.0
0.928496499866 0.591972355662 0.0
0.415994924088 0.445179237264 0.0
0.550676279722 0.700587793503 0.0
0.457419075966 0.475378337463 0.0
0.487784228528 0.681812558239 0.0
0.294486153593 0.907306332673 0.0
0.529023908159 0.819217590842 0.0
0.878179416513 0.928450111846 0.0
0.43177082296 0.325138184819 0.0
0.594991413224 0.502665473483 0.0
0.856347114993 0.0295469420965 0.0
0.555297682022 0.243609991492 0.0
0.133977628612 0.0998400780981 0.0
0.426476948071 0.554203067259 0.0
0.883779284433 0.083652262988 0.0
0.0549453116068 0.262682738707 0.0
0.900872415487 0.687642566377 0.0
0.57215247984 0.329371586556 0.0
0.0458170717883 0.577040673775 0.0
0.926575155194 0.238618441276 0.0
0.95211824418 0.668974528357 0.0
0.867040572307 0.686445364259 0.0
0.131608981299 0.439822883152 0.0
0.7214126382 0.992727220365 0.0
0.644989993172 0.623107656701 0.0
0.346588342552 0.533446910618 0.0
0.671627040404 0.643963639331 0.0
0.909713108269 0.824508196131 0.0
0.882779182153 0.146703690628 0.0
0.946766518371 0.164086397954 0.0
0.394288510708 0.336228513749 0.0
0.0468525868294 0.0258532370799 0.0
0.945667190949 0.587784631082 0.0
0.683090102033 0.0276409083693 0.0
0.632490672494 0.555435535593 0.0
0.0879796313756 0.763049075024 0.0
0.0885104822506 0.0384601918497 0.0
0.955856718828 0.831231511708 0.0
0.247058662576 0.797002098392 0.0
0.346100038725 0.16474811948 0.0
0.367128300818 0.0482928446874 0.0
0.886245038674 0.542140457555 0.0
0.914151056967 0.0445390472395 0.0
0.657765495733 0.639692176658 0.0
0.087561173689 0.983811111778 0.0
0.0358138019363 0.782426088066 0.0
0.178601904846 0.0797473192705 0.0
0.981621786086 0.119447501253 0.0
0.526419598022 0.200889218779 0.0
0.704170976233 0.786090533307 0.0
0.610035239375 0.347930242612 0.0
0.472406492431 0.40733343795 0.0
0.422475153301 0.57828966871 0.0
0.829889331 0.3328476216 0.0
0.0491591907847 0.221867649604 0.0
0.831064935477 0.446046249429 0.0
0.244023826903 0.0223683337076 0.0
0.586718664473 0.457193317001 0.0
0.0346069586452 0.284327189702 0.0
0.0804806743737 0.245860055562 0.0
0.0587276330579 0.864417159842 0.0
0.423293040606 0.589270928689 0.0
0.587815765983 0.216809527516 0.0
0.672199796272 0.439217163274 0.0
0.460561690106 0.224792126686 0.0
0.467449655444 0.0941751367651 0.0
0.334547940367 0.706560617741 0.0
0.717482128592 0.648586016562 0.0
0.534716688205 0.422799880108 0.0
0.409356126578 0.527728069367 0.0
0.527334724583 0.582131813754 0.0
0.720187746931 0.964722293608 0.0
0.513897092336 0.213083909057 0.0
0.466886284986 0.967545721496 0.0
0.321754843987 0.747031495077 0.0
0.628435068936 0.821528739572 0.0
0.235285885638 0.544940266044 0.0
0.157416330251 0.237312212703 0.0
0.00494427197338 0.342843146957 0.0
0.0712599014445 0.0783242736987 0.0
0.568026338943 0.00553389956681 0.0
0.921446624138 0.221820967349 0.0
0.169790966827 0.185002574107 0.0
0.992863169564 0.530410065142 0.0
0.370111909338 0.956925075958 0.0
0.964914383026 0.00573802403147 0.0
0.60019951034 0.598834969774 0.0
0.559115220723 0.298608056621 0.0
0.00682783294653 0.297070955516 0.0
0.205622771003 0.850044094353 0.0
0.657808011336 0.74232909802 0.0
0.622322876203 0.293000063849 0.0
0.90770189108 0.329048852338 0.0
0.274485573812 0.329289651659 0.0
0.80943886068 0.403847184509 0.0
0.676306656834 0.929992948386 0.0
0.504932408309 0.938665649992 0.0
0.629605605066 0.331039243264 0.0
0.342749295203 0.685756025731 0.0
0.743370314512 0.273129624533 0.0
0.79996744755 0.061927975955 0.0
0.593263033908 0.447299356442 0.0
0.175519950154 0.776305879118 0.0
0.556224423096 0.584920161608 0.0
0.0647980360528 0.648757038301 0.0
0.342112800384 0.250154430164 0.0
0.6863198168 0.750898190869 0.0
0.908428161536 0.783439494595 0.0
0.239939118018 0.0555732549069 0.0
0.592525523382 0.996918059411 0.0
0.661343140197 0.0351761505943 0.0
0.176497030075 0.317571059654 0.0
0.846630956635 0.4142948859 0.0
0.619557258277 0.249981134863 0.0
0.328401821909 0.527815518299 0.0
0.667924232792 0.710668799939 0.0
0.571646611333 0.955288039906 0.0
0.874730098652 0.882591532567 0.0
0.474994016243 0.492719116921 0.0
0.112767871416 0.986554424248 0.0
0.358289301384 0.715675940936 0.0
0.615361817824 0.780124390426 0.0
0.640321038892 0.776411283827 0.0
0.0706462587521 0.324074307216 0.0
0.49816122649 0.490598029394 0.0
0.634781073063 0.536715564239 0.0
0.768458276045 0.989855964194 0.0
0.827685973506 0.347892505924 0.0
0.0105339384773 0.280334780334 0.0
0.305622064871 0.678526608496 0.0
0.615128290562 0.971171241493 0.0

CELLS 379 1516
3 149 125 100
3 87 173 49
3 147 87 49
3 129 113 49
3 114 129 49
3 116 27 8
3 98 116 8
3 88 98 8
3 125 105 100
3 105 125 115
3 24 149 57
3 24 125 149
3 53 87 147
3 192 25 147
3 53 25 91
3 25 53 147
3 40 171 173
3 171 104 173
3 173 104 49
3 104 114 49
3 129 65 113
3 65 188 113
3 178 22 142
3 188 22 178
3 72 70 120
3 75 143 189
3 198 143 40
3 22 153 142
3 153 22 74
3 143 153 74
3 153 143 75
3 0 96 106
3 181 161 8
3 161 88 8
3 88 161 66
3 196 161 181
3 124 50 33
3 150 88 66
3 88 150 98
3 150 97 98
3 83 116 98
3 97 83 98
3 134 24 57
3 134 28 117
3 24 109 125
3 145 40 173
3 145 59 183
3 157 192 147
3 157 127 192
3 157 197 127
3 62 157 147
3 197 157 62
3 9 197 62
3 197 9 127
3 84 128 192
3 127 84 192
3 84 9 128
3 9 84 127
3 151 46 2
3 46 151 52
3 46 52 108
3 174 46 108
3 141 134 117
3 37 145 183
3 37 198 40
3 145 37 40
3 65 12 29
3 12 65 129
3 12 171 29
3 12 104 171
3 114 12 129
3 104 12 114
3 39 18 33
3 16 134 57
3 134 16 28
3 11 83 97
3 11 150 66
3 150 11 97
3 61 151 115
3 151 61 52
3 128 23 2
3 23 151 2
3 99 70 59
3 70 99 120
3 193 72 120
3 137 193 120
3 7 75 189
3 107 143 74
3 143 107 40
3 143 135 189
3 135 143 198
3 5 165 75
3 153 165 142
3 165 153 75
3 10 92 178
3 76 186 0
3 186 96 0
3 186 76 195
3 186 20 96
3 196 163 18
3 163 196 181
3 124 163 181
3 18 163 33
3 163 124 33
3 124 110 50
3 110 124 181
3 116 111 27
3 83 111 116
3 27 111 154
3 134 68 24
3 68 109 24
3 68 134 108
3 52 68 108
3 109 177 125
3 61 177 52
3 177 68 52
3 68 177 109
3 125 177 115
3 177 61 115
3 145 36 59
3 41 53 91
3 36 41 91
3 41 36 145
3 53 41 87
3 87 41 173
3 41 145 173
3 123 9 62
3 9 123 128
3 23 123 62
3 123 23 128
3 134 133 108
3 141 133 134
3 133 174 108
3 38 137 120
3 170 38 119
3 38 170 137
3 132 170 119
3 132 39 33
3 170 132 78
3 122 196 18
3 161 122 66
3 196 122 161
3 149 47 57
3 47 16 57
3 79 111 83
3 79 31 154
3 111 79 154
3 28 131 117
3 182 131 28
3 38 86 119
3 86 38 120
3 148 62 100
3 148 23 62
3 105 148 100
3 151 60 115
3 60 105 115
3 94 37 183
3 94 48 37
3 59 94 183
3 70 94 59
3 72 138 70
3 138 94 70
3 94 138 48
3 48 138 82
3 139 172 26
3 172 139 17
3 51 172 17
3 193 51 17
3 14 71 26
3 187 17 82
3 187 193 17
3 193 187 72
3 138 187 82
3 187 138 72
3 170 126 137
3 126 193 137
3 126 170 78
3 51 126 78
3 126 51 193
3 19 7 189
3 158 107 74
3 158 65 29
3 65 158 188
3 158 22 188
3 22 158 74
3 185 165 5
3 185 178 142
3 165 185 142
3 199 10 178
3 185 199 178
3 199 185 5
3 20 176 96
3 96 176 106
3 176 43 106
3 34 136 50
3 110 44 50
3 44 34 50
3 152 181 8
3 152 110 181
3 6 36 91
3 25 6 91
3 162 46 174
3 99 162 174
3 179 47 149
3 16 179 28
3 47 179 16
3 80 141 117
3 131 80 117
3 80 131 182
3 77 99 174
3 133 77 174
3 99 77 120
3 77 86 120
3 166 15 39
3 166 132 119
3 132 166 39
3 86 166 119
3 168 15 182
3 15 168 39
3 168 11 66
3 122 168 66
3 39 168 18
3 168 122 18
3 23 81 151
3 81 60 151
3 73 139 26
3 139 73 7
3 71 73 26
3 73 71 75
3 7 73 75
3 130 139 7
3 19 130 7
3 139 130 17
3 48 130 37
3 130 19 37
3 103 136 93
3 37 167 198
3 19 167 37
3 167 135 198
3 135 167 189
3 167 19 189
3 158 4 107
3 4 171 40
3 107 4 40
3 171 4 29
3 4 158 29
3 199 164 10
3 164 199 5
3 55 164 5
3 140 186 195
3 140 55 186
3 140 164 55
3 92 140 195
3 10 140 92
3 164 140 10
3 14 184 71
3 184 159 71
3 71 190 75
3 69 44 110
3 44 90 34
3 1 99 59
3 1 162 99
3 36 1 59
3 6 1 36
3 162 42 46
3 42 1 6
3 1 42 162
3 79 169 31
3 169 79 83
3 179 67 28
3 168 67 11
3 67 182 28
3 67 168 182
3 156 80 182
3 77 156 86
3 156 77 133
3 156 133 141
3 80 156 141
3 15 160 182
3 166 160 15
3 160 156 182
3 160 166 86
3 156 160 86
3 60 45 105
3 81 45 60
3 45 148 105
3 148 45 23
3 45 81 23
3 17 121 82
3 130 121 17
3 121 48 82
3 121 130 48
3 51 56 172
3 56 51 78
3 136 95 93
3 95 30 184
3 159 58 71
3 58 190 71
3 144 5 75
3 190 144 75
3 144 55 5
3 144 35 55
3 152 64 110
3 64 69 110
3 69 85 44
3 85 90 44
3 176 85 43
3 85 176 20
3 90 85 20
3 128 180 192
3 169 32 31
3 31 32 149
3 56 155 172
3 155 56 103
3 172 155 26
3 155 14 26
3 14 155 93
3 155 103 93
3 132 194 78
3 194 56 78
3 56 194 103
3 194 132 33
3 50 194 33
3 136 194 50
3 103 194 136
3 112 14 93
3 95 112 93
3 112 184 14
3 112 95 184
3 3 95 136
3 3 30 95
3 34 3 136
3 63 90 20
3 90 63 34
3 63 3 34
3 3 63 30
3 35 118 55
3 144 191 35
3 35 191 159
3 191 58 159
3 58 191 190
3 191 144 190
3 64 101 69
3 101 152 43
3 101 64 152
3 85 89 43
3 89 85 69
3 89 101 43
3 101 89 69
3 13 42 6
3 13 180 42
3 180 13 192
3 13 25 192
3 13 6 25
3 146 128 2
3 146 180 128
3 180 146 42
3 46 146 2
3 42 146 46
3 102 67 179
3 102 32 67
3 102 179 149
3 32 102 149
3 54 32 169
3 32 54 67
3 67 54 11
3 11 54 83
3 54 169 83
3 63 21 30
3 21 63 20
3 21 20 186
3 55 21 186
3 118 21 55
3 175 35 159
3 175 118 35
3 184 175 159
3 30 175 184
3 21 175 30
3 175 21 118

CELL_TYPES 379
5
5
5
5
5
5
5
5
5
5
5
5
5
5
5
5
5
5
5
5
5
5
5
5
5
5
5
5
5
5
5
5
5
5
5
5
5
5
5
5
5
5
5
5
5
5
5
5
5
5
5
5
5
5
5
5
5
5
5
5
5
5
5
5
5
5
5
5
5
5
5
5
5
5
5
5
5
5
5
5
5
5
5
5
5
5
5
5
5
5
5
5
5
5
5
5
5
5
5
5
5
5
5
5
5
5
5
5
5
5
5
5
5
5
5
5
5
5
5
5
5
5
5
5
5
5
5
5
5
5
5
5
5
5
5
5
5
5
5
5
5
5
5
5
5
5
5
5
5
5
5
5
5
5
5
5
5
5
5
5
5
5
5
5
5
5
5
5
5
5
5
5
5
5
5
5
5
5
5
5
5
5
5
5
5
5
5
5
5
5
5
5
5
5
5
5
5
5
5
5
5
5
5
5
5
5
5
5
5
5
5
5
5
5
5
5
5
5
5
5
5
5
5
5
5
5
5
5
5
5
5
5
5
5
5
5
5
5
5
5
5
5
5
5
5
5
5
5
5
5
5
5
5
5
5
5
5
5
5
5
5
5
5
5
5
5
5
5
5
5
5
5
5
5
5
5
5
5
5
5
5
5
5
5
5
5
5
5
5
5
5
5
5
5
5
5
5
5
5
5
5
5
5
5
5
5
5
5
5
5
5
5
5
5
5
5
5
5
5
5
5
5
5
5
5
5
5
5
5
5
5
5
5
5
5
5
5
5
5
5
5
5
5
5
5
5
5
5
5
5
5
5
5
5
5
5
5
5
5
5
5
5
5
5
5
5
5
5
5
5
5
5
5
5
5
5
5
5
5

POINT_DATA 200
SCALARS value float 1
LOOKUP_TABLE default
0.0
0.0
0.0
0.0
0.0
0.0
0.0
0.0
0.0
0.0
0.0
0.0
0.0
0.0
0.0
0.0
0.0
0.0
0.0
0.0
0.0
0.0
0.0
0.0
0.0
0.0
0.0
0.0
0.0
0.0
0.0
0.0
0.0
0.0
0.0
0.0
0.0
0.0
0.0
0.0
0.0
0.0
0.0
0.0
0.0
0.0
0.0
0.0
0.0
0.0
0.0
0.0
0.0
0.0
0.0
0.0
0.0
0.0
0.0
0.0
0.0
0.0
0.0
0.0
0.0
0.0
0.0
0.0
0.0
0.0
0.0
0.0
0.0
0.0
0.0
0.0
0.0
0.0
0.0
0.0
0.0
0.0
0.0
0.0
0.0
0.0
0.0
0.0
0.0
0.0
0.0
0.0
0.0
0.0
0.0
0.0
0.0
0.0
0.0
0.0
0.0
0.0
0.0
0.0
0.0
0.0
0.0
0.0
0.0
0.0
0.0
0.0
0.0
0.0
0.0
0.0
0.0
0.0
0.0
0.0
0.0
0.0
0.0
0.0
0.0
0.0
0.0
0.0
0.0
0.0
0.0
0.0
0.0
0.0
0.0
0.0
0.0
0.0
0.0
0.0
0.0
0.0
0.0
0.0
0.0
0.0
0.0
0.0
0.0
0.0
0.0
0.0
0.0
0.0
0.0
0.0
0.0
0.0
0.0
0.0
0.0
0.0
0.0
0.0
0.0
0.0
0.0
0.0
0.0
0.0
0.0
0.0
0.0
0.0
0.0
0.0
0.0
0.0
0.0
0.0
0.0
0.0
0.0
0.0
0.0
0.0
0.0
0.0
0.0
0.0
0.0
0.0
0.0
0.0
0.0
0.0
0.0
0.0
0.0
0.0
