# vtk DataFile Version 2.0
Sample triangulation
ASCII
DATASET UNSTRUCTURED_GRID

POINTS 20004 float
0.995740152879 0.316935441867 0.0
0.224698818158 0.567104504612 0.0
0.23800180511 0.886416505601 0.0
0.954648502078 0.184863489641 0.0
0.807438395158 0.979341152818 0.0
0.71455401778 0.69667864969 0.0
0.205741591316 0.263862754772 0.0
0.767011317068 0.533180366189 0.0
0.477930132786 0.190111121848 0.0
0.0292521534801 0.744198804636 0.0
0.168000431047 0.390532690662 0.0
0.172754531432 0.535097949183 0.0
0.818373099577 0.549407271951 0.0
0.0100723102579 0.394607407752 0.0
0.65285484746 0.541850156576 0.0
0.309395035813 0.53961659783 0.0
0.820110925593 0.900525689227 0.0
0.282896829022 0.290466265362 0.0
0.826798887877 0.821025421292 0.0
0.285922709858 0.446584258368 0.0
0.872697837167 0.656298368511 0.0
0.776663051145 0.11582484096 0.0
0.00419603257274 0.0359951067497 0.0
0.968792800636 0.366434801366 0.0
0.900038360883 0.929307567272 0.0
0.145777096276 0.767557844136 0.0
0.980035624889 0.196591055322 0.0
0.838078187359 0.703042172144 0.0
0.497925992966 0.992903270506 0.0
0.331801363721 0.769855529082 0.0
0.814881970738 0.987276397579 0.0
0.605545655496 0.191023608608 0.0
0.588024011957 0.426571625403 0.0
0.271565355221 0.229459246457 0.0
0.492910702846 0.4346955194 0.0
0.065643199929 0.481817728291 0.0
0.0159525829794 0.20230260102 0.0
0.0817329198287 0.321354258591 0.0
0.548283621416 0.0918625929392 0.0
0.359000459502 0.348783509208 0.0
0.775296645164 0.134467936357 0.0
0.519741532197 0.704434879247 0.0
0.699951334916 0.517519290408 0.0
0.203541622085 0.327454814299 0.0
0.121315988978 0.775344861458 0.0
0.235203085064 0.93917619537 0.0
0.98238795671 0.0967946551782 0.0
0.759018909343 0.47659615585 0.0
0.618994794789 0.255566122702 0.0
0.370176169611 0.0983346811465 0.0
0.213616980595 0.397025159007 0.0
0.831404570928 0.387712217887 0.0
0.500383730058 0.116274963847 0.0
0.813409539042 0.231808507648 0.0
0.311415896105 0.985260636529 0.0
0.029207079452 0.0203183017199 0.0
0.404641675446 0.0281243199419 0.0
0.457810349977 0.299871583528 0.0
0.488135011401 0.376514255751 0.0
0.701175735547 0.909284690857 0.0
0.318367378162 0.69974691931 0.0
0.373903044359 0.183554978336 0.0
0.126124079424 0.108871101101 0.0
0.739974177612 0.403555547532 0.0
0.637560049522 0.169805819356 0.0
0.775058844089 0.547529293734 0.0
0.602785499272 0.412718069093 0.0
0.731585692933 0.862724926366 0.0
0.0571873276814 0.62852575511 0.0
0.540103876331 0.222882110627 0.0
0.876788502477 0.146309024208 0.0
0.316011051175 0.341586992897 0.0
0.846976233887 0.672795224215 0.0
0.429354212297 0.109820771525 0.0
0.540464277535 0.93208937259 0.0
0.694722801204 0.223602505172 0.0
0.295629239216 0.514868285164 0.0
0.191424525681 0.514182353118 0.0
0.666316919664 0.735767568809 0.0
0.822579897353 0.254610318105 0.0
0.978305674489 0.999118692792 0.0
0.0844554658354 0.523860288758 0.0
0.374868270988 0.497697055487 0.0
0.468332498677 0.290838201077 0.0
0.603451436473 0.141634352887 0.0
0.874400773866 0.409909641677 0.0
0.654796158402 0.829201355458 0.0
0.763918050163 0.123519279147 0.0
0.757245886879 0.853961837144 0.0
0.15645524936 0.754160607821 0.0
0.743131885917 0.990989752337 0.0
0.485984893486 0.695735815994 0.0
0.764141870126 0.296637958013 0.0
0.901585841297 0.971614549416 0.0
0.116104837599 0.632577229821 0.0
0.22866910027 0.02084092523 0.0
0.894571274212 0.887647432326 0.0
0.994469804904 0.668347694209 0.0
0.545448465952 0.193461697887 0.0
0.260329579461 0.764824836362 0.0
0.163160048051 0.37084459286 0.0
0.847950174908 0.00107416335286 0.0
0.88483675915 0.366500910816 0.0
0.693682789554 0.801383365939 0.0
0.00576404207744 0.671232338243 0.0
0.179842321795 0.103050243333 0.0
0.0462821992919 0.821520697487 0.0
0.288609978805 0.40230842032 0.0
0.706848185424 0.650807226954 0.0
0.112654915727 0.722905623563 0.0
0.985257443409 0.174698218195 0.0
0.186539581683 0.883131850637 0.0
0.302680775455 0.0167169001849 0.0
0.760753285264 0.940859208119 0.0
0.553473554602 0.040623629581 0.0
0.720383687945 0.404028760862 0.0
0.00527265958 0.956719362247 0.0
0.244129551757 0.426485384035 0.0
0.281906999584 0.470599979463 0.0
0.902544902418 0.263144340329 0.0
0.544243120005 0.67182287335 0.0
0.796708939848 0.329007352807 0.0
0.383760966578 0.440330472735 0.0
0.255904330486 0.711316630257 0.0
0.346428091117 0.584099072428 0.0
0.638649573522 0.201645153762 0.0
0.961293476871 0.933363192091 0.0
0.247652422527 0.82027119253 0.0
0.523688999891 0.249395222332 0.0
0.311190801363 0.789816148169 0.0
0.673531403459 0.611882991762 0.0
0.253152800852 0.283423456466 0.0
0.613664376381 0.960491024557 0.0
0.285862488032 0.811925048617 0.0
0.447538454004 0.767949325324 0.0
0.92033220706 0.762807033004 0.0
0.289796330566 0.499448719643 0.0
0.938765422555 0.539234125666 0.0
0.342342042885 0.811913009409 0.0
0.196600895981 0.54919270111 0.0
0.894648587345 0.306783778448 0.0
0.906099821383 0.854964015514 0.0
0.708733380796 0.54105583416 0.0
0.627991002316 0.838122891548 0.0
0.380553778675 0.279558086589 0.0
0.839818340948 0.767624450592 0.0
0.0646559549598 0.254896045878 0.0
0.116886255438 0.85870670303 0.0
0.995636573631 0.113764581494 0.0
0.252444729817 0.275787745623 0.0
0.398468874391 0.238282304591 0.0
0.245954977577 0.631536328628 0.0
0.324197192488 0.227681150122 0.0
0.93586508365 0.594686233483 0.0
0.129352238452 0.858673340698 0.0
0.511467262201 0.862216310177 0.0
0.539547132281 0.668937059927 0.0
0.883140674983 0.869637958274 0.0
0.678394316404 0.865918341686 0.0
0.942531789989 0.886156938454 0.0
0.217561732831 0.0715907450551 0.0
0.333198388287 0.609735451929 0.0
0.80402368864 0.25323816792 0.0
0.378949921438 0.366103553463 0.0
0.00502120247833 0.862068375661 0.0
0.0508947315552 0.728363449918 0.0
0.922003915201 0.425475795567 0.0
0.321435199528 0.192558281668 0.0
0.908039556214 0.00602204317442 0.0
0.535031800032 0.419785350622 0.0
0.504980073309 0.331725323792 0.0
0.37819884151 0.178639555004 0.0
0.780289214933 0.415181350218 0.0
0.289368764568 0.691009022786 0.0
0.379722361912 0.260625015936 0.0
0.0320684129018 0.476229582929 0.0
0.394610779712 0.245656577032 0.0
0.0777388886682 0.51700278933 0.0
0.986047961479 0.831229637831 0.0
0.892401817208 0.118240862599 0.0
0.552634208452 0.806332686162 0.0
0.852580440236 0.813250717972 0.0
0.5307518394 0.864246508486 0.0
0.179387037311 0.259931535616 0.0
0.118619423234 0.804052833384 0.0
0.10325003193 0.53342024835 0.0
0.89677115557 0.570353275597 0.0
0.718976539616 0.607258205929 0.0
0.806697096157 0.257031247977 0.0
0.47400406116 0.0209989051158 0.0
0.352831769441 0.304469807996 0.0
0.983478203742 0.726445652714 0.0
0.685403566928 0.38026099028 0.0
0.346131264269 0.157630936847 0.0
0.11783165615 0.975798448914 0.0
0.746383826665 0.334540692574 0.0
0.484549411122 0.405677286061 0.0
0.996481102783 0.00879755441518 0.0
0.268936762341 0.489682874559 0.0
0.356345297791 0.876254254715 0.0
0.150871949455 0.110995048552 0.0
0.449812622931 0.961126334584 0.0
0.571547894772 0.356417660084 0.0
0.637945937612 0.758830125186 0.0
0.12839276533 0.619728518112 0.0
0.315820139278 0.0894180640825 0.0
0.497102434728 0.157431042863 0.0
0.188533914538 0.5365610365 0.0
0.309415956549 0.566146480141 0.0
0.355648471541 0.239303719484 0.0
0.817182855848 0.813768311436 0.0
0.343289673826 0.410847784056 0.0
0.331433110202 0.211910994879 0.0
0.699191020523 0.198970183972 0.0
0.0761659626502 0.877867468992 0.0
0.171996186227 0.771373737928 0.0
0.439124052896 0.297792909781 0.0
0.639097443273 0.770238441231 0.0
0.355543557646 0.505033052262 0.0
0.402768343613 0.962037492736 0.0
0.261387959998 0.492152336594 0.0
0.858355438699 0.746594891007 0.0
0.57983855112 0.248416216134 0.0
0.433948354482 0.697732285314 0.0
0.0504995162294 0.661547104999 0.0
0.529290425478 0.724068584557 0.0
0.375572553308 0.155821436147 0.0
0.977014935098 0.73401775145 0.0
0.0636354484318 0.638284478434 0.0
0.186638587274 0.158737817613 0.0
0.957991300985 0.547181934172 0.0
0.354920676018 0.0950952968194 0.0
0.966719348413 0.174786368399 0.0
0.749177625495 0.888872831229 0.0
0.163061996483 0.571634110054 0.0
0.165722470943 0.449537758872 0.0
0.131385470349 0.905688573475 0.0
0.968235560658 0.323235765573 0.0
0.94941418976 0.956538559926 0.0
0.597883806361 0.38403703469 0.0
0.231194283986 0.645092024019 0.0
0.0568699956062 0.85927518393 0.0
0.680787226385 0.565751920097 0.0
0.798383086596 0.0746491418534 0.0
0.200556758528 0.507429094014 0.0
0.782013708002 0.902060825236 0.0
0.880176852427 0.0693607604289 0.0
0.284541808468 0.692095571126 0.0
0.699510560437 0.326938181261 0.0
0.702291854899 0.869588947646 0.0
0.83026050027 0.597568818345 0.0
0.122000457535 0.936581380526 0.0
0.783780201511 0.630692871747 0.0
0.960792175116 0.14441248378 0.0
0.188184226758 0.710205514978 0.0
0.605777310154 0.0323104834531 0.0
0.499167086984 0.398684290682 0.0
0.542981871763 0.774824749217 0.0
0.15479742917 0.944912943192 0.0
0.842101903417 0.229884166757 0.0
0.982162173412 0.99311241076 0.0
0.80347020631 0.115873138356 0.0
0.962783818917 0.743115204083 0.0
0.296041848937 0.509029483945 0.0
0.953684780368 0.845822396717 0.0
0.254381967629 0.804505340733 0.0
0.0272168259137 0.674483531043 0.0
0.693702313761 0.267055068373 0.0
0.811965648857 0.990607210447 0.0
0.703405924729 0.632690358868 0.0
0.976681099857 0.28212104449 0.0
0.97618522992 0.0797958402799 0.0
0.569362291224 0.733391545448 0.0
0.915889740651 0.362436405311 0.0
0.49663615805 0.614619939136 0.0
0.40375121912 0.0916095279594 0.0
0.365009854598 0.202071151547 0.0
0.0784076119687 0.37728281294 0.0
0.30585857809 0.528148401204 0.0
0.0374241231184 0.971716617102 0.0
0.275155684426 0.239371547119 0.0
0.0845814628781 0.235176036071 0.0
0.52345787488 0.189851533295 0.0
0.443851751318 0.538247285576 0.0
0.906245622006 0.0516507541267 0.0
0.51033799937 0.659856529564 0.0
0.0636577375803 0.224478994985 0.0
0.141119202694 0.344989642439 0.0
0.754740873833 0.328278566008 0.0
0.928102184802 0.387687376613 0.0
0.907162585552 0.54451317115 0.0
[...]
POINT_DATA 20004
SCALARS value float 1
LOOKUP_TABLE default
0.0112294955999
0.634365873223
0.237514983616
0.0779072573125
0.0368850457145
0.636846925783
0.444015225571
0.664697910686
0.561020879211
0.0660623073845
0.474135315325
0.513334339704
0.53364164182
0.0299194117383
0.879244585877
0.819621573664
0.164647281539
0.614079581501
0.275972860124
0.771251312667
0.343352811598
0.229719983644
0.00148745383903
0.0893918423424
0.0680405906874
0.294921816246
0.0362965237213
0.391266150371
0.0222927130446
0.571408817989
0.0219522861244
0.533978030496
0.936524163486
0.497241297245
0.978785582996
0.204431600274
0.0297378210072
0.215001906898
0.281337481251
0.803438105043
0.265976776184
0.799209838737
0.807881671469
0.511202547657
0.24126560509
0.127910086233
0.0165586632117
0.684935117687
0.6696796082
0.279098235546
0.589588894689
0.474126744096
0.357218582207
0.368184208437
0.0383996975147
0.00584481460184
0.0843101459877
0.80168604496
0.925046551
0.226841869221
0.681236344314
0.502998234649
0.129445077771
0.695816275107
0.461765378279
0.642082499437
0.912887793651
0.312178865131
0.16432449895
0.639266840992
0.167463716519
0.735950589849
0.395953880161
0.329912585843
0.210024206361
0.528932598491
0.799996490422
0.565217664202
0.639537049582
0.379413460158
0.000188554278476
0.261486235822
0.923696908603
0.787851191803
0.407887008272
0.369127539176
0.451933574833
0.255605334681
0.305944337656
0.329339325829
0.020440191224
0.816026708871
0.54186873347
0.0270979295495
0.326223283357
0.0430620267368
0.112412964481
0.014999156385
0.565233806152
0.491378679185
0.450609068935
0.00155135687724
0.323278537795
0.479401350008
0.0155498973874
0.170322155849
0.0770495749865
0.750674455537
0.708487103333
0.265011894792
0.0241534893044
0.198525388086
0.0427265242796
0.126136782296
0.125484991922
0.735022233085
0.00224524762754
0.675521230752
0.771017739981
0.221741037921
0.849539951538
0.512155235404
0.917697463125
0.567160584019
0.855117240444
0.536684723475
0.0252086984684
0.375577114675
0.703808493249
0.508587103118
0.802764909167
0.555068292118
0.115993050717
0.43569745129
0.657103932827
0.167949098193
0.789761499851
0.189739253365
0.490154204723
0.572210818696
0.266910254365
0.127935726357
0.786004012752
0.448078184914
0.71607342542
0.321610886719
0.144820890267
0.154178412067
0.00479551580537
0.542945470687
0.646273171887
0.639306065894
0.558320885902
0.191336253216
0.1697909939
0.419196771599
0.855789424668
0.142924036154
0.346332288797
0.0628598981569
0.140836333504
0.814870602495
0.412495688476
0.847609576796
0.00662332304192
0.119965014327
0.235968977681
0.481548906348
0.00538964922188
0.962556315079
0.863382829623
0.493722862708
0.61425213507
0.651106322857
0.678791578239
0.100295245844
0.659516206722
0.241458468235
0.0221591047027
0.120374841551
0.563778515491
0.247325653786
0.4117416592
0.389336303151
0.210238224549
0.31695622622
0.310896758194
0.729112825591
0.41231379995
0.0657024451269
0.731393988801
0.0392975305022
0.776718017292
0.420769295361
0.027480331686
0.620641382108
0.95529002192
0.0003054950307
0.747505117707
0.341090147684
0.155951697766
0.120310805314
0.877338562843
0.623691951386
0.365068602363
0.232106477852
0.474646059782
0.55458951544
0.808276318563
0.613919570323
0.300026967766
0.84689970386
0.533038604963
0.474280883128
0.088721923288
0.33852966214
0.790246574726
0.598659585543
0.898665171636
0.113472383299
0.731724153129
0.307611535092
0.681564167715
0.795739112585
0.138071079955
0.759077982034
0.434739354983
0.053511725999
0.180140568986
0.264638261334
0.130148492558
0.264281001715
0.054470235237
0.242502382752
0.477801040048
0.491191237174
0.11712129464
0.0846547938718
0.021540348589
0.890538991014
0.596315005236
0.0760326365205
0.825078868657
0.13753885574
0.589038944568
0.191565771614
0.0794705585074
0.641835232136
0.693134102317
0.320563810324
0.484642717083
0.0740142629519
0.57601538762
0.0538488481889
0.440177180616
0.0957884280124
0.949767846059
0.643950924652
0.0804799557937
0.314625856228
0.00121184673975
0.206122152558
0.0842500022707
0.801323071657
0.0675141749361
0.413059496531
0.0728878012865
0.61041019008
0.016432723029
0.733944004653
0.0567057860007
0.0185422668166
0.725451326631
0.237163250509
0.935813153932
0.270965853181
0.540503251606
0.225943430247
0.816494769191
0.010409026238
0.519655209048
0.176843538278
0.560172958295
0.977384377952
0.0468989185147
0.876061488992
0.128769506807
0.379091890849
0.597578228612
0.210160959023
0.284733000671
0.389620559823
0.527095671072
0.596561751908
0.539065622631
0.0925521731925
0.00626874260356
0.463444541047
0.142889493058
0.0353778880061
0.672540997168
0.0498536519482
0.335033622699
0.170804731834
0.21122397999
0.361009747172
0.532176404725
0.136042518142
0.825914985136
0.559534958431
0.75145280213
0.53372101197
0.920226690815
0.27505572069
0.61950750307
0.135610806568
0.0217296858884
0.422507810279
0.146081108705
0.147571042361
0.00981706673992
0.201124189595
0.200459327696
0.960317742347
0.978800523893
0.421183912849
0.526000504357
0.276795268046
0.125067957611
0.20801093493
0.760373938196
0.716787232341
0.0225030181836
0.0761755059419
0.210455340172
0.454303340222
0.441550687586
0.781243755802
0.353832028795
0.43141186428
0.686838692399
0.395474554041
0.337319830446
0.923411655908
0.658489240407
0.008930425941
0.273554416887
0.398121346486
0.479330307918
0.548841639547
0.914302884989
0.277971715658
0.250945711405
0.0347343225279
0.439841459736
0.408268552762
0.930337614366
0.294580884405
0.520321064884
0.275935459046
0.00474403904059
0.768514835116
0.314300995166
0.700536874286
0.175034085482
0.528946617683
0.225411841818
0.333484119726
0.20031892744
0.256278257448
0.0432649316871
0.0618681164622
0.782469779705
0.13200017385
0.151195914093
0.337959560651
0.244944071314
0.114151028628
0.323992704408
0.810911382703
0.597891755714
0.39478066527
0.773427899476
0.100921428355
0.239554023036
0.542658800563
0.808102580531
0.554486733611
0.242689381142
0.410817619328
0.168195693092
0.212976110373
0.730697790261
0.584203246416
0.84029336802
0.345943743539
0.0247237676711
0.970820068812
0.317597428431
0.415752661491
0.313295406702
0.283944730735
0.0513858599276
0.0750974908714
0.464330324171
0.156380504211
0.820293307431
0.902381909399
0.209526079844
0.992109442348
0.763674508793
0.270614807901
0.400493671768
0.259962392574
0.0903873719022
0.0360073562102
0.64201191671
0.605684352737
0.844713457369
0.0157141161441
0.297139177613
0.61315474341
0.811543043644
0.808041598943
0.0426467883038
0.397441939302
0.596565876379
0.160515226248
0.0390909686356
0.8829044724
0.440586486046
0.643671655103
0.221662532299
0.0579728223696
0.0303122788037
0.20015931869
0.0420159914296
0.0273829794324
0.351238695014
0.931956988579
0.196093736728
0.763997829749
0.775443394002
0.107382342625
0.0169667152546
0.74662354852
0.197977808181
0.647825351941
0.243995012792
0.0170035751604
0.433766461129
0.284683393782
0.520679219687
0.152750659821
0.228945124911
0.0515143295564
0.897968703572
0.229875895066
0.628941249129
0.691413458143
0.0797364508234
0.463099393374
0.177361858071
0.522961959182
0.177764672879
0.367598818942
0.0367404327967
0.0755269690504
0.0876089529946
0.534504465875
0.0726616345728
0.912453245472
0.228096932016
0.459755944574
0.589991653598
0.254672957115
0.119369734568
0.258935440923
0.687329957439
0.0311453625833
0.151149159394
0.712289005761
0.00863019290307
0.166028202113
0.012887993801
0.266162068592
0.301526710118
0.168678481187
0.494391058875
0.0114867438779
0.890094017115
0.00248943288725
0.357328504081
0.677415466274
0.585755261155
0.950168512556
0.655806756302
0.0626628493753
0.0824469658402
0.869062909589
0.833617029022
0.522150696642
0.343327227158
0.0170745444829
0.457049377082
0.0163701734408
0.701303696628
0.14370077628
0.191820313547
0.80036247827
0.601081122809
0.32378793296
0.913109107379
0.477424796196
0.364958380488
0.196854217102
0.00976016366268
0.122283057832
0.0180578008989
0.221364871528
0.562403239161
0.209606706672
0.22556961051
0.312781018329
0.258894243624
0.791844772369
0.489393236393
0.654764799357
0.296465051966
0.809448493159
0.00301112733974
0.465276569264
0.808233944104
0.0948797769283
0.0509408024859
0.60488377415
0.45234997424
0.584462720867
0.304293698603
0.931203348387
0.487731063646
0.522812370402
0.0166957613185
0.544345283139
0.913140651491
0.191056596375
0.124016632821
0.289072721511
0.170290348027
0.321804135519
0.270355001281
0.643286832104
0.773044109894
0.455733752008
0.00586713755818
0.0231192644602
0.34049830507
0.118872214511
0.631736563606
0.137145178621
0.0276327976233
0.539559873568
0.232410584815
0.975384100357
0.181387527958
0.303667764838
0.845319055401
0.998062215718
0.127370051572
0.204540739964
0.00103865982763
0.537382082883
0.512202263652
0.351892429944
0.257257990866
0.126883170432
0.0167230106261
0.52660432774
0.247672957713
0.607834795973
0.195930790148
0.313525431891
0.0531488667302
0.143052738901
0.416486031648
0.373200046543
0.0926829452673
0.400358613888
0.274994122144
0.249303267291
0.908565608004
0.564968945169
0.329637015616
0.604785056362
0.692829845572
0.867465604276
0.0718285731464
0.77859312653
0.214628229632
0.860249358849
0.123690667346
0.0226937578504
0.369707966249
0.523977683172
0.899715972657
0.971152004016
0.139616319726
0.933059430565
0.742599255288
0.536078286777
0.901894779487
0.0598408584167
0.334019098897
0.754541780865
0.171773167299
0.0807912756604
0.837290728303
0.71740371371
0.102361464986
0.490617158173
0.0117414710601
0.879157696893
0.530977799766
0.0152506629349
0.288592035339
0.805867661621
0.37023686475
0.228117846165
0.27129672235
0.294070990466
0.172822132396
0.0222103405572
0.625080706828
0.957252659641
0.122639142123
0.378707952964
0.209294908891
0.176417216416
0.193490401628
0.231462992249
0.758848929945
0.452039058087
0.0909992428916
0.497426208798
0.93117142227
0.0288016637004
0.560699746134
0.740145943208
0.250072727102
0.310834605818
0.155619364538
0.0266242426649
0.0832822143741
0.465594847169
0.00157603476241
0.0331088359789
0.354467850604
0.49287406991
0.0494951331329
0.840116363144
0.521182892407
0.0831292729808
0.731992932688
0.345815414846
0.0205103608201
0.0648426581656
0.0035772278326
0.961039927753
0.0913089284307
0.170564316402
0.177381951453
0.294515891763
0.623557736914
0.411339767925
0.251458949061
0.461835757635
0.191119999236
0.952365143585
0.0577451380988
0.463789063921
0.518041377485
0.34791947954
0.424174885642
0.259922430177
0.592646170458
0.236646629906
0.580778069274
0.1894439835
0.37029042108
0.161965396226
0.080036215092
0.719810682176
0.216151762696
0.238264962789
0.442578787125
0.258505043587
0.853657190822
0.0526042975428
0.97556173439
0.651082893579
0.74166148749
0.603045595793
0.673750724377
0.0287105668792
0.494790872809
0.286555653234
0.322112697342
0.180676111704
0.0338259385403
0.751990546286
0.371712313424
0.503257313605
0.0682872105578
0.648853124091
0.397257556209
0.633433458992
0.03139780462
0.364211090612
0.211364889264
0.392129051244
0.196249404904
0.189188113346
0.166793666867
0.781693327627
0.613032423404
0.05823622135
0.139312618638
0.239176812128
0.283724180376
0.206459083817
0.750694539024
0.639808523695
0.104461525818
0.139416953533
0.113402301234
0.448743750358
0.588491411001
0.715147228464
0.0294420343871
0.39988242213
0.649406746732
0.652495619271
0.0231554881589
0.875953504743
0.474263370701
0.756821351055
0.634916172704
0.228664744883
0.5462125133
0.134963622383
0.0277212801789
0.332451194914
0.890753815582
0.714959631066
0.388661497299
0.59063417752
0.061626937916
0.60146700374
0.851131014798
0.0182475692942
0.226568568182
0.996596560442
0.272859209277
0.302626827254
0.137087139458
0.351478384026
0.931761287811
0.928968792765
0.106816511616
0.0898480083311
0.676395863569
0.610269450024
0.209192780053
0.396238592023
0.681750249578
0.695301559658
0.0540987678986
0.103658811849
0.283826507998
0.0898294434534
0.343780511001
0.728910488671
0.181987710506
0.61660805557
0.571136254734
0.573578023281
0.249538045072
0.0527758255628
0.436560390898
0.916612531174
0.557911164236
0.525549657814
0.0282221121066
0.600937745362
0.224252351776
0.19911084392
0.301213463581
0.138383636814
0.125484896368
0.363490609866
0.272615547496
0.639080594233
0.722166539253
0.494653090831
0.029991950585
0.719727687713
0.475232825292
0.216753102595
0.0792649121206
0.0964603905164
0.52814648668
0.68439725724
0.79035456801
0.070798139903
0.127444382266
0.0597144382039
0.943337036739
0.172453020928
0.805248925123
0.504314418231
0.48226553452
0.759845895174
0.162613181398
0.264958643564
0.757853340964
0.316830458584
0.0236550821745
0.898373719821
0.116300912672
0.0137999538051
0.301584290433
0.0135844633251
0.359219344749
0.406538912573
0.92232899897
0.266499845936
0.0891503334794
0.0741929756829
0.0529748710251
0.617864686704
0.484460111846
0.0346532934154
0.49769870076
0.618988670716
0.286605692085
0.313022155542
0.904704006612
0.715476747324
0.858458067088
0.613033313794
0.0332726889136
0.38046999105
0.608574963508
0.667986295313
0.417509288726
0.0314207239909
0.751083479505
0.589401530082
0.0261552020484
0.138523050428
0.873157723387
0.511804267126
0.353078307564
0.758313607079
0.574050819455
0.418551267758
0.000169802677871
0.72207044609
0.899137092564
0.304884645371
0.0600890360688
0.126063528043
0.137403180902
0.968530148452
0.883966957082
0.0376542843568
0.474291739408
0.594538615213
0.508859902099
0.370871853812
0.300832007813
0.0162345359235
0.221818263778
0.502547099844
0.503433597502
0.249080283841
0.047969207635
0.405624251967
0.96955696158
0.81053887343
0.693086001387
0.417888891276
0.442993924244
0.503154156364
0.49016372642
0.147128414784
0.762257436982
0.375426859557
0.740429562339
0.0138001310556
0.273526645027
0.285825704987
0.509576190924
0.367018106637
0.246162021179
0.0590295549078
0.143631150707
0.553643811618
0.413508072393
0.566507175123
0.122988754755
0.0747342161778
0.734787030986
0.923190588664
0.693360103314
0.223867449461
0.0905271153711
0.744534827213
0.0508249384634
0.550055339712
0.818439350173
0.362849642207
0.514648125618
0.0131740643238
0.0686007290936
0.170481285661
0.0144897159184
0.226887225595
0.190824632653
0.413966504629
0.035648530227
0.999538282581
0.719519162564
0.405688524845
0.279388261717
0.854638171986
0.572747398846
0.527167174589
0.653218377885
0.640068126476
0.0195605020555
0.0370706830279
0.631506063289
0.398977833946
0.509707705167
0.187683690001
0.986492812434
0.180137901425
0.831577348527
0.201131540553
0.259715728329
0.565940880358
0.991718733356
0.643104855716
0.327611017869
0.00322457961497
0.280397927571
0.054485281766
0.148818175643
0.282440519089
0.0619530845398
0.032886284644
0.681623209868
0.736720843884
0.898111751887
0.578245909367
0.874159977202
0.908738313645
0.483362814857
0.423519481944
0.587804105192
0.934695946259
0.948068943393
0.112033422427
0.0800473561949
0.0267104963234
0.206189257005
0.922744976968
0.893485898751
0.723184017752
0.631776682762
0.108089812604
0.769711352442
0.145351751624
0.667979394276
0.950906112127
0.0201498333495
0.230770427102
0.578703806219
0.673961414593
0.367281000132
0.347096807366
0.0416733149492
0.813848855759
0.497419797856
0.796827550931
0.147731383064
0.333542439348
0.215908235133
0.116857747874
0.605346715073
0.27846536448
0.5181057067
0.203560023757
0.12774853193
0.115019406216
0.686568088124
0.417818126877
0.171648286982
0.0440786406213
0.143735742185
0.214916966091
0.028589098873
0.98469600257
0.897377085534
0.737237155169
0.0168625997964
0.885253575394
0.126636324348
0.489320398534
0.108443464755
0.108288173404
0.014379260159
0.945625623275
0.47533466847
0.343260727116
0.0800124107659
0.256564968016
0.594748968341
0.70373044611
0.4513410692
0.335013180871
0.477608422364
0.565498862817
0.170703847809
0.14802086188
0.0614267644633
0.13832197862
0.867624990032
0.437192554972
0.887397141501
0.7706143473
0.961923540616
0.0628262912329
0.105826106893
0.238474463885
0.668758087089
0.160316520033
0.0228934777663
0.242060696959
0.28734333758
0.875778063174
0.468935558499
0.666044511798
0.932729944097
0.736048282575
0.865505520784
0.0114649229683
0.333086736311
0.296293349512
0.0183739371049
0.26568049541
0.313718971537
0.0405328696657
0.0948745573067
0.628412889502
0.0618373831584
0.624637872176
0.0595596885586
0.869055924873
0.84704451877
0.663962411529
0.138386130052
0.739357637572
0.393942134624
0.132004779576
0.820790829209
0.00864511656734
0.0462665882485
0.25696486664
0.028923905102
0.83103985614
0.00272401769782
0.245513699021
0.232137438754
0.0751009666679
0.115610682095
0.027300449852
0.400806800523
0.526956919978
0.760594370956
0.747035180165
0.151195869349
0.495695111995
0.0886603564223
0.695090527484
0.0659277520633
0.142968772948
0.435308519894
0.311829315411
0.965139422574
0.19775628886
0.453818076596
0.663408737164
0.214505391214
0.776595330173
0.0374641874263
0.86604651432
0.211893467884
0.471515387361
0.218345503253
0.136970287196
0.804494584544
0.264986927022
0.141832623351
0.974861993898
0.237965804278
0.50944110613
0.137547091506
0.287996226901
0.557348001502
0.762998674286
0.00562294153817
0.701634345551
0.191844965918
0.587018289603
0.558475504807
0.610420605405
0.149501762166
0.801199554235
0.00212694886189
0.303629692357
0.599786161401
0.0495159463959
0.693289959085
0.265470768379
0.156827865284
0.177454132268
0.407040557995
0.258993032852
0.324631734304
0.183489871578
0.793712418065
0.702585257536
0.442051787134
0.219056497189
0.292648748584
0.00799636734195
0.505799782604
0.410620408761
0.107581144891
3.93105191783e-05
0.969330956209
0.351175215428
0.307080825339
0.58879813555
0.975552930694
0.302275294121
0.121816568888
0.56098081936
0.504173874273
0.518394208054
0.546489650546
0.0617189794453
0.109468464139
0.0589471350554
0.148609351126
0.042130882251
0.261241358181
0.74614178551
0.0936547597566
0.251227297472
0.0797295084016
0.402694635763
0.136880895318
0.210613130194
0.312443087678
0.0348634340424
0.265188056509
0.000954592738545
0.167571587423
0.540520436434
0.28127566463
0.708635501687
0.397595521689
0.994704986669
0.00198949436132
0.707371469639
0.0719922136713
0.233002808816
0.687337273084
0.0926871301806
0.477270558394
0.0032501039723
0.4722212697
0.559616320056
0.0534653776063
0.51157042933
0.338291080252
0.73523948582
0.15550703972
0.00535727680011
0.192698742478
0.583546247134
0.770977398878
0.69420061103
0.045640354113
0.425154991186
0.104783818939
0.124444403232
0.655197759943
0.0519433959632
0.178694600259
0.439794577911
0.31735360422
0.122632806676
0.438270352378
0.200276596886
0.411748468578
0.0508149902843
0.861611157317
0.0537586923483
0.780495208818
0.87096034732
0.184022179294
0.984418178072
0.34507083798
0.521242183122
0.677266202764
0.730773605835
0.0605350851736
0.575123902774
0.00204010357395
0.292145540967
0.0429131195015
0.363600329566
0.99159849527
0.0491843296391
0.751749110171
0.903380062128
0.177672119278
0.472885172588
0.631720116289
0.904123270743
0.371577796891
0.439503314997
0.625230756864
0.339370553028
0.043655501146
0.21068020703
0.780946581727
0.297255380293
0.875032083763
0.73762527095
0.0633917166862
0.214158482333
0.254417601488
0.135788497169
0.141607725057
0.407108030842
0.274456154193
0.619661845778
0.0122177927986
0.444873029413
0.248734421846
0.0310696312253
0.0608494179576
0.210735055208
0.819932850642
0.578941812558
0.444731776456
0.725263485123
0.0439815073184
0.193521508741
0.292717283644
0.770773199291
0.636507214105
0.792517293285
0.64211885645
0.0970079137053
0.175426134687
0.108261920172
0.214780289384
0.105040584456
0.515848672546
0.0305323641531
0.465248666237
0.585874716723
0.453143687491
0.861370191182
0.830572197877
0.133636791734
0.00131687547922
0.928715685501
0.825476077194
0.431755444817
0.195210988892
0.645827868622
0.568163911055
0.22380152546
0.137998215779
0.0331993727128
0.232054807255
0.958640888611
0.0283963620895
0.52801421243
0.28470045764
0.513543473985
0.822712439966
0.0340585123671
0.346504894382
0.961004624716
0.450549814078
0.192972291603
0.15326275594
0.967217129161
0.29490250925
0.329525520873
0.808960842499
0.254841655431